;;
;; Generated by CHARMM-GUI FF-Converter
;;
;; Correspondance:
;; jul316@lehigh.edu or wonpil@lehigh.edu
;;
;; The main GROMACS topology file
;;

; Include forcefield parameters
; This force field generated by charmm2gmx.py from
; multiple charmm parameter files
; and multiple charmm topology files

; This GROMACS version was created from:
; CHARMM parameters: multiple files
; CHARMM topology: multiple files
; Please see forcefield.doc for files and references
[ defaults ]
; nbfunc	comb-rule	gen-pairs	fudgeLJ	fudgeQQ
1	2	yes	1.0	1.0

; This force field generated by charmm2gmx.py from
; multiple charmm parameter files
; and multiple charmm topology files

[ atomtypes ]
;type atnum         mass   charge ptype           sigma  epsilon
   AG    47   107.868200    0.000  A  0.263260571210 19.07904
   AL    13    26.981540    0.000  A  0.391995435982  2.71960
 ALG1    13    26.981540    0.000  A  0.356359487256  2.71960
   AU    79   196.966500    0.000  A  0.262904211723 22.13336
  BAR    56   137.327000    0.000  A  0.336759715457  0.62760
BG201     5    10.811000    0.000  A  0.454358346252  0.15899
BRGA1    35    79.904000    0.000  A  0.351014094947  2.00832
BRGA2    35    79.904000    0.000  A  0.365268474438  2.21752
BRGA3    35    79.904000    0.000  A  0.356359487256  2.25936
BRGR1    35    79.904000    0.000  A  0.352795892384  1.33888
    C     6    12.011000    0.000  A  0.356359487256  0.46024
   C3     6    12.011000    0.000  A  0.405358916754  0.08368
   CA     6    12.011000    0.000  A  0.355005321205  0.29288
  CAD    48   112.411000    0.000  A  0.241789912103  0.50208
  CAI     6    12.011000    0.000  A  0.354577689820  0.30543
  CAL    20    40.080000    0.000  A  0.243571709540  0.50208
  CAP     6    12.011000    0.000  A  0.355005321205  0.29288
   CC     6    12.011000    0.000  A  0.356359487256  0.29288
 CC1A     6    12.011000    0.000  A  0.372395664183  0.28451
 CC1B     6    12.011000    0.000  A  0.372395664183  0.28451
  CC2     6    12.011000    0.000  A  0.370613866746  0.26778
CC2O1     6    12.011000    0.000  A  0.356359487256  0.46024
CC2O2     6    12.011000    0.000  A  0.356359487256  0.29288
CC2O3     6    12.011000    0.000  A  0.356359487256  0.37656
CC2O4     6    12.011000    0.000  A  0.320723538531  0.25104
CC2O5     6    12.011000    0.000  A  0.302905564168  0.41003
CC301     6    12.011000    0.000  A  0.356359487256  0.13389
CC3051     6    12.011000    0.000  A  0.356359487256  0.13389
CC3062     6    12.011000    0.000  A  0.356359487256  0.13389
CC30A     6    12.011000    0.000  A  0.356359487256  0.13389
CC311     6    12.011000    0.000  A  0.356359487256  0.13389
CC311C     6    12.011000    0.000  A  0.356359487256  0.13389
CC311D     6    12.011000    0.000  A  0.356359487256  0.13389
CC312     6    12.011000    0.000  A  0.356359487256  0.13389
CC312C     6    12.011000    0.000  A  0.356359487256  0.13389
CC312D     6    12.011000    0.000  A  0.356359487256  0.13389
CC3151     6    12.011000    0.000  A  0.356359487256  0.13389
CC3152     6    12.011000    0.000  A  0.356359487256  0.13389
CC3153     6    12.011000    0.000  A  0.356359487256  0.13389
CC3161     6    12.011000    0.000  A  0.356359487256  0.13389
CC3162     6    12.011000    0.000  A  0.356359487256  0.13389
CC3163     6    12.011000    0.000  A  0.356359487256  0.13389
CC31A     6    12.011000    0.000  A  0.356359487256  0.13389
CC321     6    12.011000    0.000  A  0.358141284692  0.23430
CC321C     6    12.011000    0.000  A  0.358141284692  0.23430
CC321D     6    12.011000    0.000  A  0.358141284692  0.23430
CC322     6    12.011000    0.000  A  0.358141284692  0.23430
CC322C     6    12.011000    0.000  A  0.359923082129  0.25104
CC3251     6    12.011000    0.000  A  0.359923082129  0.25104
CC325A     6    12.011000    0.000  A  0.359923082129  0.25104
CC325B     6    12.011000    0.000  A  0.359923082129  0.25104
CC3261     6    12.011000    0.000  A  0.358141284692  0.23430
CC3263     6    12.011000    0.000  A  0.358141284692  0.23430
CC326A     6    12.011000    0.000  A  0.358141284692  0.23430
CC32A     6    12.011000    0.000  A  0.358141284692  0.23430
CC331     6    12.011000    0.000  A  0.363486677001  0.32635
CC33A     6    12.011000    0.000  A  0.363486677001  0.32635
  CCL     6    12.011000    0.000  A  0.356359487256  0.29288
   CD     6    12.011000    0.000  A  0.356359487256  0.29288
  CE1     6    12.011000    0.000  A  0.372395664183  0.28451
  CE2     6    12.011000    0.000  A  0.370613866746  0.26778
 CEL1     6    12.011000    0.000  A  0.372395664183  0.28451
 CEL2     6    12.011000    0.000  A  0.370613866746  0.26778
 CEL3     6    12.011000    0.000  A  0.372395664183  0.28451
  CES    55   132.900000    0.000  A  0.374177461619  0.79496
  CF1     6    12.011000    0.000  A  0.338541512893  0.25104
  CF2     6    12.011000    0.000  A  0.365268474438  0.17573
  CF3     6    12.011000    0.000  A  0.409813410345  0.08368
CG1N1     6    12.011000    0.000  A  0.333196120584  0.75312
CG1T1     6    12.011000    0.000  A  0.327850728276  0.69873
CG1T2     6    12.011000    0.000  A  0.355023139179  0.43179
CG251O     6    12.011000    0.000  A  0.372395664183  0.28451
CG252O     6    12.011000    0.000  A  0.372395664183  0.28451
CG25C1     6    12.011000    0.000  A  0.372395664183  0.28451
CG25C2     6    12.011000    0.000  A  0.372395664183  0.28451
CG2D1     6    12.011000    0.000  A  0.372395664183  0.28451
CG2D1O     6    12.011000    0.000  A  0.372395664183  0.28451
CG2D2     6    12.011000    0.000  A  0.370613866746  0.26778
CG2D2O     6    12.011000    0.000  A  0.372395664183  0.28451
CG2DC1     6    12.011000    0.000  A  0.372395664183  0.28451
CG2DC2     6    12.011000    0.000  A  0.372395664183  0.28451
CG2DC3     6    12.011000    0.000  A  0.370613866746  0.26778
CG2N1     6    12.011000    0.000  A  0.356359487256  0.46024
CG2N2     6    12.011000    0.000  A  0.356359487256  0.46024
CG2O1     6    12.011000    0.000  A  0.356359487256  0.46024
CG2O2     6    12.011000    0.000  A  0.302905564168  0.41003
CG2O3     6    12.011000    0.000  A  0.356359487256  0.29288
CG2O4     6    12.011000    0.000  A  0.320723538531  0.25104
CG2O5     6    12.011000    0.000  A  0.356359487256  0.37656
CG2O6     6    12.011000    0.000  A  0.356359487256  0.29288
CG2O7     6    12.011000    0.000  A  0.278494939291  0.24267
CG2R51     6    12.011000    0.000  A  0.374177461619  0.20920
CG2R52     6    12.011000    0.000  A  0.391995435982  0.08368
CG2R53     6    12.011000    0.000  A  0.391995435982  0.08368
CG2R57     6    12.011000    0.000  A  0.374177461619  0.20920
CG2R61     6    12.011000    0.000  A  0.355005321205  0.29288
CG2R62     6    12.011000    0.000  A  0.338541512893  0.37656
CG2R63     6    12.011000    0.000  A  0.338541512893  0.41840
CG2R64     6    12.011000    0.000  A  0.374177461619  0.16736
CG2R66     6    12.011000    0.000  A  0.338541512893  0.29288
CG2R67     6    12.011000    0.000  A  0.355005321205  0.29288
CG2R71     6    12.011000    0.000  A  0.355432952589  0.28033
CG2RC0     6    12.011000    0.000  A  0.331414323148  0.41422
CG2RC7     6    12.011000    0.000  A  0.331414323148  0.41422
CG301     6    12.011000    0.000  A  0.356359487256  0.13389
CG302     6    12.011000    0.000  A  0.409813410345  0.08368
CG311     6    12.011000    0.000  A  0.356359487256  0.13389
CG312     6    12.011000    0.000  A  0.365268474438  0.17573
CG314     6    12.011000    0.000  A  0.385759144955  0.12970
CG321     6    12.011000    0.000  A  0.358141284692  0.23430
CG322     6    12.011000    0.000  A  0.338541512893  0.25104
CG323     6    12.011000    0.000  A  0.391995435982  0.46024
CG324     6    12.011000    0.000  A  0.387540942391  0.23012
CG331     6    12.011000    0.000  A  0.365268474438  0.32635
CG334     6    12.011000    0.000  A  0.394668132136  0.32217
CG3AM0     6    12.011000    0.000  A  0.351014094947  0.29288
CG3AM1     6    12.011000    0.000  A  0.352795892384  0.32635
CG3AM2     6    12.011000    0.000  A  0.354577689820  0.33472
CG3C31     6    12.011000    0.000  A  0.358141284692  0.23430
CG3C41     6    12.011000    0.000  A  0.359923082129  0.27196
CG3C50     6    12.011000    0.000  A  0.358141284692  0.15062
CG3C51     6    12.011000    0.000  A  0.358141284692  0.15062
CG3C52     6    12.011000    0.000  A  0.359923082129  0.25104
CG3C53     6    12.011000    0.000  A  0.387540942391  0.14644
CG3C54     6    12.011000    0.000  A  0.389322739827  0.24686
CG3RC1     6    12.011000    0.000  A  0.356359487256  0.13389
   CL     6    12.011000    0.000  A  0.356359487256  0.29288
  CLA    17    35.450000    0.000  A  0.404468018036  0.62760
 CLAL    17    35.453000    0.000  A  0.340002586791  0.12552
CLGA1    17    35.453000    0.000  A  0.340323310330  1.43511
CLGA3    17    35.453000    0.000  A  0.340323310330  1.29704
CLGR1    17    35.453000    0.000  A  0.331414323148  0.96232
   CM     6    12.011000    0.000  A  0.374177461619  0.46024
   CN     6    12.011000    0.000  A  0.311814551349  0.83680
  CN1     6    12.011000    0.000  A  0.338541512893  0.41840
 CN1A     6    12.011000    0.000  A  0.356359487256  0.29288
 CN1T     6    12.011000    0.000  A  0.338541512893  0.41840
  CN2     6    12.011000    0.000  A  0.338541512893  0.41840
  CN3     6    12.011000    0.000  A  0.338541512893  0.37656
 CN3A     6    12.011000    0.000  A  0.320723538531  0.75312
 CN3B     6    12.011000    0.000  A  0.320723538531  0.75312
 CN3C     6    12.011000    0.000  A  0.320723538531  0.75312
 CN3D     6    12.011000    0.000  A  0.338541512893  0.37656
 CN3T     6    12.011000    0.000  A  0.338541512893  0.37656
  CN4     6    12.011000    0.000  A  0.338541512893  0.31380
  CN5     6    12.011000    0.000  A  0.338541512893  0.31380
 CN5G     6    12.011000    0.000  A  0.338541512893  0.31380
  CN6     6    12.011000    0.000  A  0.405358916754  0.08368
  CN7     6    12.011000    0.000  A  0.405358916754  0.08368
 CN7B     6    12.011000    0.000  A  0.405358916754  0.08368
 CN7E     6    12.011000    0.000  A  0.405358916754  0.08368
  CN8     6    12.011000    0.000  A  0.358141284692  0.23430
 CN8B     6    12.011000    0.000  A  0.358141284692  0.23430
  CN9     6    12.011000    0.000  A  0.363486677001  0.32635
  CNA     6    12.011000    0.000  A  0.355005321205  0.29288
 CNA2     6    12.011000    0.000  A  0.338541512893  0.29288
 CNE1     6    12.011000    0.000  A  0.372395664183  0.28451
 CNE2     6    12.011000    0.000  A  0.370613866746  0.26778
  CNG     6    12.011000    0.000  A  0.356359487256  0.46024
  COA     6    12.011000    0.000  A  0.356359487256  0.46024
  CP1     6    12.011000    0.000  A  0.405358916754  0.08368
  CP2     6    12.011000    0.000  A  0.387540942391  0.23012
  CP3     6    12.011000    0.000  A  0.387540942391  0.23012
  CPA     6    12.011000    0.000  A  0.320723538531  0.37656
  CPB     6    12.011000    0.000  A  0.320723538531  0.37656
 CPD1     6    12.011000    0.000  A  0.405358916754  0.08368
 CPH1     6    12.011000    0.000  A  0.320723538531  0.20920
 CPH2     6    12.011000    0.000  A  0.320723538531  0.20920
  CPM     6    12.011000    0.000  A  0.320723538531  0.37656
  CPT     6    12.011000    0.000  A  0.331414323148  0.41422
 CRL1     6    12.011000    0.000  A  0.358141284692  0.15062
 CRL2     6    12.011000    0.000  A  0.359923082129  0.25104
   CS     6    12.011000    0.000  A  0.391995435982  0.46024
  CST     6    12.011000    0.000  A  0.278494939291  0.24267
   CT     6    12.011000    0.000  A  0.405358916754  0.08368
  CT1     6    12.011000    0.000  A  0.356359487256  0.13389
 CT1X     6    12.011000    0.000  A  0.405358916754  0.08368
  CT2     6    12.011000    0.000  A  0.358141284692  0.23430
 CT2A     6    12.011000    0.000  A  0.358141284692  0.23430
 CT2P     6    12.011000    0.000  A  0.358141284692  0.23430
 CT2X     6    12.011000    0.000  A  0.358141284692  0.23430
  CT3     6    12.011000    0.000  A  0.363486677001  0.32635
 CT3X     6    12.011000    0.000  A  0.363486677001  0.32635
 CTD1     6    12.011000    0.000  A  0.356359487256  0.13389
 CTL1     6    12.011000    0.000  A  0.405358916754  0.08368
 CTL2     6    12.011000    0.000  A  0.358141284692  0.23430
 CTL3     6    12.011000    0.000  A  0.363486677001  0.32635
 CTL5     6    12.011000    0.000  A  0.367050271874  0.33472
 CTO1     6    12.011000    0.000  A  0.405358916754  0.08368
 CTO2     6    12.011000    0.000  A  0.358141284692  0.23430
   CU    29    63.546000    0.000  A  0.233059104666 19.74848
   CY     6    12.011000    0.000  A  0.354577689820  0.30543
  DUM     1     1.008000    0.000  A  0.000000000000  0.00000
   F1     9    18.998000    0.000  A  0.290432982114  0.56484
   F2     9    18.998000    0.000  A  0.290432982114  0.43932
   F3     9    18.998000    0.000  A  0.285087589805  0.40585
   FA     9    18.998000    0.000  A  0.302905564168  0.50208
   FE    26    55.847000    0.000  A  0.115816833358 -0.00000
 FGA1     9    18.998000    0.000  A  0.290432982114  0.56484
 FGA2     9    18.998000    0.000  A  0.290432982114  0.43932
 FGA3     9    18.998000    0.000  A  0.285087589805  0.40585
 FGP1     9    18.998000    0.000  A  0.285087589805  0.40585
 FGR1     9    18.998000    0.000  A  0.302905564168  0.50208
  FNA     9    18.998400    0.000  A  0.302905564168  0.50208
    H     1     1.008000    0.000  A  0.040001352445  0.19246
   HA     1     1.008000    0.000  A  0.235197261589  0.09205
  HA1     1     1.008000    0.000  A  0.238760856462  0.18828
  HA2     1     1.008000    0.000  A  0.238760856462  0.14226
  HA3     1     1.008000    0.000  A  0.238760856462  0.10042
  HAL     1     1.008000    0.000  A  0.235197261589  0.09205
 HAL1     1     1.008000    0.000  A  0.235197261589  0.09205
 HAL2     1     1.008000    0.000  A  0.238760856462  0.11715
 HAL3     1     1.008000    0.000  A  0.238760856462  0.10042
   HB     1     1.008000    0.000  A  0.235197261589  0.09205
  HB1     1     1.008000    0.000  A  0.235197261589  0.09205
  HB2     1     1.008000    0.000  A  0.238760856462  0.11715
  HBL     1     1.008000    0.000  A  0.235197261589  0.09205
   HC     1     1.008000    0.000  A  0.040001352445  0.19246
 HCA1     1     1.008000    0.000  A  0.238760856462  0.18828
HCA1A     1     1.008000    0.000  A  0.238760856462  0.18828
HCA1C2     1     1.008000    0.000  A  0.238760856462  0.18828
 HCA2     1     1.008000    0.000  A  0.238760856462  0.14644
HCA25A     1     1.008000    0.000  A  0.231633666716  0.14644
HCA2A     1     1.008000    0.000  A  0.238760856462  0.14644
HCA2C2     1     1.008000    0.000  A  0.231633666716  0.14644
 HCA3     1     1.008000    0.000  A  0.238760856462  0.10042
HCA3A     1     1.008000    0.000  A  0.238760856462  0.10042
HCA3M     1     1.008000    0.000  A  0.238760856462  0.10042
  HCL     1     1.008000    0.000  A  0.040001352445  0.19246
 HCP1     1     1.008000    0.000  A  0.040001352445  0.19246
HCP1M     1     1.008000    0.000  A  0.040001352445  0.19246
 HCR1     1     1.008000    0.000  A  0.142543794902  0.19246
   HE     2     4.002600    0.000  A  0.263706020570  0.08899
  HE1     1     1.008000    0.000  A  0.222724679535  0.12970
  HE2     1     1.008000    0.000  A  0.224506476971  0.10878
 HEL1     1     1.008000    0.000  A  0.222724679535  0.12970
 HEL2     1     1.008000    0.000  A  0.224506476971  0.10878
  HF1     1     1.008000    0.000  A  0.235197261589  0.11715
  HF2     1     1.008000    0.000  A  0.231633666716  0.12552
 HGA1     1     1.008000    0.000  A  0.238760856462  0.18828
 HGA2     1     1.008000    0.000  A  0.238760856462  0.14644
 HGA3     1     1.008000    0.000  A  0.238760856462  0.10042
 HGA4     1     1.008000    0.000  A  0.222724679535  0.12970
 HGA5     1     1.008000    0.000  A  0.224506476971  0.10878
 HGA6     1     1.008000    0.000  A  0.235197261589  0.11715
 HGA7     1     1.008000    0.000  A  0.231633666716  0.12552
HGAAM0     1     1.008000    0.000  A  0.228070071844  0.11715
HGAAM1     1     1.008000    0.000  A  0.228070071844  0.11715
HGAAM2     1     1.008000    0.000  A  0.224506476971  0.16736
 HGP1     1     1.008000    0.000  A  0.040001352445  0.19246
 HGP2     1     1.008000    0.000  A  0.040001352445  0.19246
 HGP3     1     1.008000    0.000  A  0.080180884633  0.41840
 HGP4     1     1.008000    0.000  A  0.040001352445  0.19246
 HGP5     1     1.008000    0.000  A  0.124725820540  0.19246
HGPAM1     1     1.008000    0.000  A  0.155907275675  0.03766
HGPAM2     1     1.008000    0.000  A  0.155907275675  0.04184
HGPAM3     1     1.008000    0.000  A  0.155016376956  0.05021
HGR51     1     1.008000    0.000  A  0.242003727796  0.12552
HGR52     1     1.008000    0.000  A  0.160361769265  0.19246
HGR53     1     1.008000    0.000  A  0.124725820540  0.19246
HGR61     1     1.008000    0.000  A  0.242003727796  0.12552
HGR62     1     1.008000    0.000  A  0.195997717991  0.19246
HGR63     1     1.008000    0.000  A  0.160361769265  0.19246
HGR71     1     1.008000    0.000  A  0.242003727796  0.12552
HGTIP3     1     1.008000    0.000  A  0.040001352445  0.19246
   HL     1     1.008000    0.000  A  0.124725820540  0.19246
  HN1     1     1.008000    0.000  A  0.040001352445  0.19246
  HN2     1     1.008000    0.000  A  0.040001352445  0.19246
  HN3     1     1.008000    0.000  A  0.195997717991  0.19246
 HN3B     1     1.008000    0.000  A  0.160361769265  0.19246
  HN4     1     1.008000    0.000  A  0.040001352445  0.19246
  HN5     1     1.008000    0.000  A  0.040001352445  0.19246
  HN6     1     1.008000    0.000  A  0.235197261589  0.09205
  HN7     1     1.008000    0.000  A  0.235197261589  0.09205
  HN8     1     1.008000    0.000  A  0.238760856462  0.11715
  HN9     1     1.008000    0.000  A  0.238760856462  0.10042
 HNE1     1     1.008000    0.000  A  0.222724679535  0.12970
 HNE2     1     1.008000    0.000  A  0.224506476971  0.10878
  HNP     1     1.008000    0.000  A  0.242003727796  0.12552
  HOL     1     1.008000    0.000  A  0.040001352445  0.19246
   HP     1     1.008000    0.000  A  0.242003727796  0.12552
 HPER     1     1.008000    0.000  A  0.040001352445  0.19246
  HR1     1     1.008000    0.000  A  0.160361769265  0.19246
  HR2     1     1.008000    0.000  A  0.124725820540  0.19246
  HR3     1     1.008000    0.000  A  0.261567863646  0.03264
   HS     1     1.008000    0.000  A  0.080180884633  0.41840
 HSIA     1     1.008000    0.000  A  0.235197261589  0.09205
 HSIO     1     1.008000    0.000  A  0.040001352445  0.19246
; CHARMM_TIP3P, but not HEAVY_H 
HT	1	1.008000	0.417	A	0.0400013524445 0.192464 
   HX     1     1.008000    0.000  A  0.040001352445  0.19246
 IGR1    53   126.904470    0.000  A  0.399122625727  2.17568
  LIT     3     6.941000    0.000  A  0.231188217357  0.00975
  LPH     1     0.000000    0.000  A  0.000000000000  0.00000
   MG    12    24.305000    0.000  A  0.211142996199  0.06276
    N     7    14.007000    0.000  A  0.329632525712  0.83680
   NC     7    14.007000    0.000  A  0.329632525712  2.51040
  NC2     7    14.007000    0.000  A  0.329632525712  0.83680
NC2D1     7    14.007000    0.000  A  0.329632525712  0.83680
NC311     7    14.007000    0.000  A  0.356359487256  0.18828
   NE    10    20.179700    0.000  A  0.272615007751  0.35982
NG1T1     7    14.007000    0.000  A  0.318941741094  0.75312
NG2D1     7    14.007000    0.000  A  0.329632525712  0.83680
NG2O1     7    14.007000    0.000  A  0.329632525712  0.83680
NG2P1     7    14.007000    0.000  A  0.329632525712  0.83680
NG2R43     7    14.007000    0.000  A  0.329632525712  0.83680
NG2R50     7    14.007000    0.000  A  0.329632525712  0.83680
NG2R51     7    14.007000    0.000  A  0.329632525712  0.83680
NG2R52     7    14.007000    0.000  A  0.329632525712  0.83680
NG2R53     7    14.007000    0.000  A  0.329632525712  0.83680
NG2R57     7    14.007000    0.000  A  0.329632525712  0.83680
NG2R60     7    14.007000    0.000  A  0.336759715457  0.25104
NG2R61     7    14.007000    0.000  A  0.329632525712  0.83680
NG2R62     7    14.007000    0.000  A  0.367050271874  0.20920
NG2R67     7    14.007000    0.000  A  0.329632525712  0.83680
NG2RC0     7    14.007000    0.000  A  0.329632525712  0.83680
NG2S0     7    14.007000    0.000  A  0.329632525712  0.83680
NG2S1     7    14.007000    0.000  A  0.329632525712  0.83680
NG2S2     7    14.007000    0.000  A  0.329632525712  0.83680
NG2S3     7    14.007000    0.000  A  0.329632525712  0.83680
NG301     7    14.007000    0.000  A  0.356359487256  0.14644
NG311     7    14.007000    0.000  A  0.356359487256  0.18828
NG321     7    14.007000    0.000  A  0.354577689820  0.25104
NG331     7    14.007000    0.000  A  0.352795892384  0.29288
NG3C51     7    14.007000    0.000  A  0.329632525712  0.83680
NG3N1     7    14.007000    0.000  A  0.365268474438  0.25104
NG3P0     7    14.007000    0.000  A  0.329632525712  0.83680
NG3P1     7    14.007000    0.000  A  0.329632525712  0.83680
NG3P2     7    14.007000    0.000  A  0.329632525712  0.83680
NG3P3     7    14.007000    0.000  A  0.329632525712  0.83680
  NH1     7    14.007000    0.000  A  0.329632525712  0.83680
  NH2     7    14.007000    0.000  A  0.329632525712  0.83680
  NH3     7    14.007000    0.000  A  0.329632525712  0.83680
 NH3L     7    14.007000    0.000  A  0.329632525712  0.83680
  NHL     7    14.007000    0.000  A  0.329632525712  0.83680
   NI    28    58.693400    0.000  A  0.227357352869 23.63960
  NN1     7    14.007000    0.000  A  0.329632525712  0.83680
 NN1C     7    14.007000    0.000  A  0.329632525712  0.83680
  NN2     7    14.007000    0.000  A  0.329632525712  0.83680
 NN2B     7    14.007000    0.000  A  0.329632525712  0.83680
 NN2C     7    14.007000    0.000  A  0.329632525712  0.83680
 NN2G     7    14.007000    0.000  A  0.329632525712  0.83680
 NN2U     7    14.007000    0.000  A  0.329632525712  0.83680
  NN3     7    14.007000    0.000  A  0.329632525712  0.83680
 NN3A     7    14.007000    0.000  A  0.329632525712  0.83680
 NN3G     7    14.007000    0.000  A  0.329632525712  0.83680
 NN3I     7    14.007000    0.000  A  0.329632525712  0.83680
  NN4     7    14.007000    0.000  A  0.329632525712  0.83680
  NN6     7    14.007000    0.000  A  0.329632525712  0.83680
  NNG     7    14.007000    0.000  A  0.329632525712  0.83680
   NP     7    14.007000    0.000  A  0.329632525712  0.83680
  NPH     7    14.007000    0.000  A  0.329632525712  0.83680
  NR1     7    14.007000    0.000  A  0.329632525712  0.83680
  NR2     7    14.007000    0.000  A  0.329632525712  0.83680
  NR3     7    14.007000    0.000  A  0.329632525712  0.83680
  NS1     7    14.007000    0.000  A  0.329632525712  0.83680
  NS2     7    14.007000    0.000  A  0.329632525712  0.83680
  NTL     7    14.007000    0.000  A  0.329632525712  0.83680
   NY     7    14.007000    0.000  A  0.329632525712  0.83680
    O     8    15.999400    0.000  A  0.302905564168  0.50208
  O2L     8    15.999400    0.000  A  0.302905564168  0.50208
  OAL     8    15.999000    0.000  A  0.315378146222  0.63639
   OB     8    15.999400    0.000  A  0.302905564168  0.50208
  OBL     8    15.999400    0.000  A  0.302905564168  0.50208
   OC     8    15.999400    0.000  A  0.302905564168  0.50208
OC2D1     8    15.999400    0.000  A  0.302905564168  0.50208
OC2D2     8    15.999400    0.000  A  0.302905564168  0.50208
OC2D3     8    15.999400    0.000  A  0.302905564168  0.20920
OC2D4     8    15.999400    0.000  A  0.302905564168  0.50208
OC2DP     8    15.999400    0.000  A  0.302905564168  0.50208
OC301     8    15.999400    0.000  A  0.293996576986  0.41840
OC302     8    15.999400    0.000  A  0.293996576986  0.41840
OC303     8    15.999400    0.000  A  0.293996576986  0.41840
OC305A     8    15.999400    0.000  A  0.293996576986  0.41840
OC30A     8    15.999400    0.000  A  0.293996576986  0.41840
OC30P     8    15.999400    0.000  A  0.315378146222  0.63639
OC311     8    15.999400    0.000  A  0.314487247504  0.80375
OC311M     8    15.999400    0.000  A  0.314487247504  0.80375
OC312     8    15.999400    0.000  A  0.315378146222  0.63639
OC3C51     8    15.999400    0.000  A  0.293996576986  0.41840
OC3C5M     8    15.999400    0.000  A  0.293996576986  0.41840
OC3C61     8    15.999400    0.000  A  0.293996576986  0.41840
  OCA     8    15.999000    0.000  A  0.302905564168  0.50208
  OCL     8    15.999400    0.000  A  0.302905564168  0.50208
OG2D1     8    15.999400    0.000  A  0.302905564168  0.50208
OG2D2     8    15.999400    0.000  A  0.302905564168  0.50208
OG2D3     8    15.999400    0.000  A  0.302905564168  0.20920
OG2D4     8    15.999400    0.000  A  0.302905564168  0.50208
OG2D5     8    15.999400    0.000  A  0.301480126219  0.69036
OG2N1     8    15.999400    0.000  A  0.302905564168  0.50208
OG2P1     8    15.999400    0.000  A  0.302905564168  0.50208
OG2R50     8    15.999400    0.000  A  0.302905564168  0.50208
OG2S1     8    15.999400    0.000  A  0.299270697398  0.59538
OG301     8    15.999400    0.000  A  0.293996576986  0.41840
OG302     8    15.999400    0.000  A  0.293996576986  0.41840
OG303     8    15.999400    0.000  A  0.293996576986  0.41840
OG304     8    15.999400    0.000  A  0.293996576986  0.41840
OG311     8    15.999400    0.000  A  0.314487247504  0.80375
OG312     8    15.999400    0.000  A  0.311814551349  0.50208
OG3C31     8    15.999400    0.000  A  0.293996576986  0.41840
OG3C51     8    15.999400    0.000  A  0.293996576986  0.41840
OG3C61     8    15.999400    0.000  A  0.293996576986  0.41840
OG3R60     8    15.999400    0.000  A  0.293996576986  0.41840
OGTIP3     8    15.999400    0.000  A  0.315057422683  0.63639
  OH1     8    15.999400    0.000  A  0.315378146222  0.63639
  OHL     8    15.999400    0.000  A  0.315378146222  0.63639
   OM     8    15.999000    0.000  A  0.302905564168  0.50208
  ON1     8    15.999400    0.000  A  0.302905564168  0.50208
 ON1C     8    15.999400    0.000  A  0.302905564168  0.50208
  ON2     8    15.999400    0.000  A  0.315378146222  0.63639
 ON2B     8    15.999400    0.000  A  0.315378146222  0.63639
 ON2M     8    15.999400    0.000  A  0.293996576986  0.41840
  ON3     8    15.999400    0.000  A  0.302905564168  0.50208
  ON4     8    15.999400    0.000  A  0.315378146222  0.63639
  ON5     8    15.999400    0.000  A  0.315378146222  0.63639
  ON6     8    15.999400    0.000  A  0.315378146222  0.63639
 ON6B     8    15.999400    0.000  A  0.315378146222  0.63639
 OPER     8    15.999400    0.000  A  0.298313872174  0.85287
   OS     8    15.999400    0.000  A  0.315378146222  0.63639
 OSIA     8    15.999000    0.000  A  0.315378146222  0.63639
 OSIE     8    15.999000    0.000  A  0.315378146222  0.63639
 OSIH     8    15.999000    0.000  A  0.315378146222  0.63639
  OSL     8    15.999400    0.000  A  0.293996576986  0.41840
 OSLP     8    15.999400    0.000  A  0.293996576986  0.41840
  OST     8    15.999000    0.000  A  0.301480126219  0.69036
   OT     8    15.999400    0.000  A  0.315057422683  0.63639
   OX     8    15.999400    0.000  A  0.302905564168  0.50208
    P    15    30.974000    0.000  A  0.383086448800  2.44764
   P2    15    30.974000    0.000  A  0.383086448800  2.44764
   P3    15    30.974000    0.000  A  0.383086448800  2.44764
   P4    15    30.974000    0.000  A  0.383086448800  2.44764
   PB    82   207.200000    0.000  A  0.317605393017 12.25912
   PC    15    30.974000    0.000  A  0.383086448800  2.44764
   PD    46   106.420000    0.000  A  0.251144348644 25.73160
  PG0    15    30.973800    0.000  A  0.383086448800  2.44764
  PG1    15    30.973800    0.000  A  0.383086448800  2.44764
  PG2    15    30.973800    0.000  A  0.383086448800  2.44764
   PL    15    30.974000    0.000  A  0.383086448800  2.44764
  POT    19    39.102000    0.000  A  0.314264522824  0.36401
   PT    78   195.084000    0.000  A  0.253460685311 32.63520
  RUB    37    85.467800    0.000  A  0.338541512893  0.62760
    S    16    32.060000    0.000  A  0.356359487256  1.88280
   SC    16    32.060000    0.000  A  0.374177461619  1.96648
SEGD1    34    78.960000    0.000  A  0.387540942391  2.60663
SG2D1    16    32.060000    0.000  A  0.365268474438  2.36396
SG2P1    16    32.060000    0.000  A  0.373054929234  2.63927
SG2P2    16    32.060000    0.000  A  0.366088101258  2.59366
SG2R50    16    32.060000    0.000  A  0.356359487256  1.88280
SG301    16    32.060000    0.000  A  0.351904993665  1.58992
SG302    16    32.060000    0.000  A  0.391995435982  1.96648
SG311    16    32.060000    0.000  A  0.356359487256  1.88280
SG3O1    16    32.060000    0.000  A  0.374177461619  1.96648
SG3O2    16    32.060000    0.000  A  0.356359487256  1.46440
SG3O3    16    32.060000    0.000  A  0.356359487256  1.46440
   SI    14    28.085500    0.000  A  0.391995435982  2.51040
 SIH3    14    28.085500    0.000  A  0.391995435982  2.51040
   SL    16    32.060000    0.000  A  0.374177461619  1.96648
   SM    16    32.060000    0.000  A  0.351904993665  1.58992
  SOD    11    22.989770    0.000  A  0.251367073323  0.19623
   SP    16    32.060000    0.000  A  0.391995435982  1.88280
   SS    16    32.060000    0.000  A  0.391995435982  1.96648
   ZN    30    65.370000    0.000  A  0.194215920555  1.04600
; The following atom types are NOT part of the CHARMM distribution
; atomtypes for additional water models
OWT4	8	15.999400	0.0 A	3.15365e-01 6.48520e-01 ; TIP4p O
HWT4	1	1.008000	0.52	A	0.0 0.0 ; TIP4p H
MWT4	0	0.000000	-1.04	A	0.0 0.0 ; TIP4p vsite
OW	8	15.999400	-0.82	A	3.16557e-01 6.50194e-01 ; SPC O
HW	1	1.008000	0.41	A	0.0 0.0 ; SPC H
; special dummy-type particles
MNH3	0	0.000000	0.00	A	0.0 0.0
MNH2	0	0.000000	0.00	A	0.0 0.0
MCH3	0	0.000000	0.00	A	0.0 0.0
MCH3S	0	0.000000	0.00	A	0.0 0.0
MW		0	0.000000	0.00	A	0.0 0.0
; Updated Mg2+ parameters by Allner et al. (DOI: 10.1021/ct3000734)
MGA 12	  24.305000    0.000  A   0.277000	0.01234280	

[ pairtypes ]
  CP1     C  1  0.347450500075  0.138767581228
  CP1    CA  1  0.346773417049  0.110698234855
  CP1    CC  1  0.347450500075  0.110698234855
  CP1    CD  1  0.347450500075  0.110698234855
  CP1   CE1  1  0.355468588538  0.109105371453
  CP1   CE2  1  0.354577689820  0.105847757841
  CP1   CP1  1  0.338541512893  0.041840000000
  CP1   CP2  1  0.338541512893  0.041840000000
  CP1   CP3  1  0.338541512893  0.041840000000
  CP1  CPH1  1  0.329632525712  0.093557084179
  CP1  CPH2  1  0.329632525712  0.093557084179
  CP1    CS  1  0.365268474438  0.138767581228
  CP1   CPT  1  0.334977918021  0.131646486622
  CP1    CY  1  0.346559601357  0.113045454929
  CP1   CAI  1  0.346559601357  0.113045454929
  CP1    CT  1  0.338541512893  0.041840000000
  CP1   CT1  1  0.338541512893  0.041840000000
  CP1   CT2  1  0.338541512893  0.041840000000
  CP1  CT2A  1  0.338541512893  0.041840000000
  CP1   CT3  1  0.338541512893  0.041840000000
  CP1    C3  1  0.371950214824  0.059170695450
  CP1     H  1  0.189271432669  0.089736802707
  CP1    HA  1  0.286869387241  0.062058748940
  CP1   HB1  1  0.286869387241  0.062058748940
  CP1   HB2  1  0.288651184677  0.070011711020
  CP1   HE1  1  0.280633096214  0.073666921749
  CP1   HE2  1  0.281523994932  0.067464972838
  CP1    HC  1  0.189271432669  0.089736802707
  CP1    HP  1  0.290272620344  0.072469005789
  CP1   HR1  1  0.249451641079  0.089736802707
  CP1   HR2  1  0.231633666716  0.089736802707
  CP1   HR3  1  0.300054688270  0.036952087465
  CP1    HS  1  0.209361198763  0.132309697301
  CP1   HA1  1  0.288651184677  0.088756043175
  CP1   HA2  1  0.288651184677  0.077149148019
  CP1   HA3  1  0.288651184677  0.064818249282
  CP1     N  1  0.334087019303  0.004184000000
  CP1   NC2  1  0.334087019303  0.187114168357
  CP1   NH1  1  0.307360057758  0.187114168357
  CP1   NH2  1  0.334087019303  0.187114168357
  CP1   NH3  1  0.334087019303  0.187114168357
  CP1    NP  1  0.334087019303  0.187114168357
  CP1   NR1  1  0.334087019303  0.187114168357
  CP1   NR2  1  0.334087019303  0.187114168357
  CP1   NR3  1  0.334087019303  0.187114168357
  CP1    NY  1  0.334087019303  0.187114168357
  CP1     O  1  0.293996576986  0.144938011577
  CP1    OB  1  0.293996576986  0.144938011577
  CP1    OC  1  0.320723538531  0.144938011577
  CP1   OH1  1  0.326959829558  0.163176000000
  CP1    OS  1  0.326959829558  0.163176000000
  CP1     S  1  0.347450500075  0.280671252536
  CP1    SM  1  0.345223253279  0.257919081884
  CP1    SS  1  0.365268474438  0.286840588481
  CP1  HGA1  1  0.288651184677  0.088756043175
  CP1  HGA2  1  0.288651184677  0.078275472531
  CP1  HGA3  1  0.288651184677  0.064818249282
  CP1  HGA4  1  0.280633096214  0.073666921749
  CP1  HGA5  1  0.281523994932  0.067464972838
  CP1  HGA6  1  0.286869387241  0.070011711020
  CP1  HGA7  1  0.285087589805  0.072469005789
  CP1 HGAAM0  1  0.283305792369  0.070011711020
  CP1 HGAAM1  1  0.283305792369  0.070011711020
  CP1 HGAAM2  1  0.281523994932  0.083680000000
  CP1  HGP1  1  0.189271432669  0.089736802707
  CP1  HGP2  1  0.189271432669  0.089736802707
  CP1  HGP3  1  0.209361198763  0.132309697301
  CP1  HGP4  1  0.189271432669  0.089736802707
  CP1  HGP5  1  0.231633666716  0.089736802707
  CP1 HGPAM1  1  0.247224394284  0.039692909190
  CP1 HGPAM2  1  0.247224394284  0.041840000000
  CP1 HGPAM3  1  0.246778944925  0.045833423612
  CP1 HGR51  1  0.290272620344  0.072469005789
  CP1 HGR52  1  0.249451641079  0.089736802707
  CP1 HGR53  1  0.231633666716  0.089736802707
  CP1 HGR61  1  0.290272620344  0.072469005789
  CP1 HGR62  1  0.267269615442  0.089736802707
  CP1 HGR63  1  0.249451641079  0.089736802707
  CP1 HGR71  1  0.290272620344  0.072469005789
  CP1 HGTIP3  1  0.189271432669  0.089736802707
  CP1 CG1T1  1  0.333196120584  0.170981810495
  CP1 CG1T2  1  0.346782326036  0.134409982486
  CP1 CG1N1  1  0.335868816739  0.177512086349
  CP1 CG2D1  1  0.355468588538  0.109105371453
  CP1 CG2D2  1  0.354577689820  0.105847757841
  CP1 CG2D1O  1  0.355468588538  0.109105371453
  CP1 CG2D2O  1  0.355468588538  0.109105371453
  CP1 CG2DC1  1  0.355468588538  0.109105371453
  CP1 CG2DC2  1  0.355468588538  0.109105371453
  CP1 CG2DC3  1  0.354577689820  0.105847757841
  CP1 CG2N1  1  0.347450500075  0.138767581228
  CP1 CG2N2  1  0.347450500075  0.138767581228
  CP1 CG2O1  1  0.347450500075  0.138767581228
  CP1 CG2O2  1  0.320723538531  0.130979917850
  CP1 CG2O3  1  0.347450500075  0.110698234855
  CP1 CG2O4  1  0.329632525712  0.102486650838
  CP1 CG2O5  1  0.347450500075  0.125520000000
  CP1 CG2O6  1  0.347450500075  0.110698234855
  CP1 CG2O7  1  0.308518226092  0.100764063435
  CP1 CG2R51  1  0.356359487256  0.093557084179
  CP1 CG2R52  1  0.365268474438  0.059170695450
  CP1 CG2R53  1  0.365268474438  0.059170695450
  CP1 CG2R57  1  0.356359487256  0.093557084179
  CP1 CG25C1  1  0.355468588538  0.109105371453
  CP1 CG25C2  1  0.355468588538  0.109105371453
  CP1 CG251O  1  0.355468588538  0.109105371453
  CP1 CG252O  1  0.355468588538  0.109105371453
  CP1 CG2R61  1  0.346773417049  0.110698234855
  CP1 CG2R62  1  0.338541512893  0.125520000000
  CP1 CG2R63  1  0.338541512893  0.132309697301
  CP1 CG2R64  1  0.356359487256  0.083680000000
  CP1 CG2R66  1  0.338541512893  0.110698234855
  CP1 CG2R67  1  0.346773417049  0.110698234855
  CP1 CG2RC0  1  0.334977918021  0.131646486622
  CP1 CG2R71  1  0.346987232741  0.108300154755
  CP1 CG2RC7  1  0.334977918021  0.131646486622
  CP1 CG301  1  0.338541512893  0.041840000000
  CP1 CG302  1  0.374177461619  0.059170695450
  CP1 CG311  1  0.338541512893  0.041840000000
  CP1 CG312  1  0.351904993665  0.085746484010
  CP1 CG314  1  0.338541512893  0.041840000000
  CP1 CG321  1  0.338541512893  0.041840000000
  CP1 CG322  1  0.338541512893  0.102486650838
  CP1 CG323  1  0.365268474438  0.138767581228
  CP1 CG324  1  0.338541512893  0.041840000000
  CP1 CG331  1  0.338541512893  0.041840000000
  CP1 CG334  1  0.338541512893  0.041840000000
  CP1 CG3C50  1  0.338541512893  0.041840000000
  CP1 CG3C51  1  0.338541512893  0.041840000000
  CP1 CG3C52  1  0.338541512893  0.041840000000
  CP1 CG3C53  1  0.338541512893  0.041840000000
  CP1 CG3C54  1  0.338541512893  0.041840000000
  CP1 CG3C31  1  0.338541512893  0.041840000000
  CP1 CG3C41  1  0.338541512893  0.041840000000
  CP1 CG3RC1  1  0.338541512893  0.041840000000
  CP1 CG3AM0  1  0.344777803920  0.110698234855
  CP1 CG3AM1  1  0.345668702638  0.116852760686
  CP1 CG3AM2  1  0.346559601357  0.118341390899
  CP1 NG1T1  1  0.328741626994  0.177512086349
  CP1 NG2D1  1  0.334087019303  0.187114168357
  CP1 NG2S0  1  0.334087019303  0.004184000000
  CP1 NG2S1  1  0.307360057758  0.187114168357
  CP1 NG2S2  1  0.334087019303  0.187114168357
  CP1 NG2S3  1  0.334087019303  0.187114168357
  CP1 NG2O1  1  0.334087019303  0.187114168357
  CP1 NG2P1  1  0.334087019303  0.187114168357
  CP1 NG2R43  1  0.334087019303  0.187114168357
  CP1 NG2R50  1  0.334087019303  0.187114168357
  CP1 NG2R51  1  0.334087019303  0.187114168357
  CP1 NG2R52  1  0.334087019303  0.187114168357
  CP1 NG2R53  1  0.334087019303  0.187114168357
  CP1 NG2R57  1  0.334087019303  0.187114168357
  CP1 NG2R60  1  0.337650614175  0.102486650838
  CP1 NG2R61  1  0.334087019303  0.187114168357
  CP1 NG2R62  1  0.352795892384  0.093557084179
  CP1 NG2R67  1  0.334087019303  0.187114168357
  CP1 NG2RC0  1  0.334087019303  0.187114168357
  CP1 NG301  1  0.347450500075  0.078275472531
  CP1 NG311  1  0.347450500075  0.088756043175
  CP1 NG321  1  0.346559601357  0.102486650838
  CP1 NG331  1  0.345668702638  0.110698234855
  CP1 NG3C51  1  0.334087019303  0.187114168357
  CP1 NG3N1  1  0.351904993665  0.102486650838
  CP1 NG3P0  1  0.334087019303  0.187114168357
  CP1 NG3P1  1  0.334087019303  0.187114168357
  CP1 NG3P2  1  0.334087019303  0.187114168357
  CP1 NG3P3  1  0.334087019303  0.187114168357
  CP1 OG2D1  1  0.293996576986  0.144938011577
  CP1 OG2D2  1  0.320723538531  0.144938011577
  CP1 OG2D3  1  0.293996576986  0.144938011577
  CP1 OG2D4  1  0.320723538531  0.144938011577
  CP1 OG2D5  1  0.320010819556  0.169954883425
  CP1 OG2N1  1  0.320723538531  0.144938011577
  CP1 OG2P1  1  0.320723538531  0.144938011577
  CP1 OG2R50  1  0.320723538531  0.144938011577
  CP1 OG3R60  1  0.316269044940  0.132309697301
  CP1 OG301  1  0.316269044940  0.132309697301
  CP1 OG302  1  0.316269044940  0.132309697301
  CP1 OG303  1  0.316269044940  0.132309697301
  CP1 OG304  1  0.316269044940  0.132309697301
  CP1 OG311  1  0.326514380198  0.183381431383
  CP1 OG312  1  0.325178032121  0.144938011577
  CP1 OG3C31  1  0.316269044940  0.132309697301
  CP1 OG3C51  1  0.316269044940  0.132309697301
  CP1 OG3C61  1  0.316269044940  0.132309697301
  CP1 OGTIP3  1  0.326799467788  0.163176000000
  CP1 SG2D1  1  0.351904993665  0.314496560236
  CP1 SG2R50  1  0.347450500075  0.280671252536
  CP1 SG311  1  0.347450500075  0.280671252536
  CP1 SG301  1  0.345223253279  0.257919081884
  CP1 SG302  1  0.365268474438  0.286840588481
  CP1 SG3O1  1  0.356359487256  0.286840588481
  CP1 SG3O2  1  0.347450500075  0.247528778125
  CP1 SG3O3  1  0.347450500075  0.247528778125
  CP1  FGA1  1  0.314487247504  0.153729976257
  CP1  FGA2  1  0.314487247504  0.135577095411
  CP1  FGA3  1  0.311814551349  0.130309939452
  CP1  FGP1  1  0.311814551349  0.130309939452
  CP1  FGR1  1  0.320723538531  0.144938011577
  CP1 CLGA1  1  0.339432411611  0.245040988571
  CP1 CLGA3  1  0.339432411611  0.232955260941
  CP1 BRGA1  1  0.344777803920  0.289876023155
  CP1 BRGA2  1  0.351904993665  0.304599797767
  CP1 BRGA3  1  0.347450500075  0.307459952514
  CP1   SOD  1  0.294954293108  0.090610410351
  CP1   CLA  1  0.371504765465  0.162045623205
  CP1   PG0  1  0.360813980847  0.320014464673
  CP1   PG1  1  0.360813980847  0.320014464673
  CP1   PG2  1  0.360813980847  0.320014464673
  CP1  ALG1  1  0.347450500075  0.337324864189
  CP1   LPH  1  0.169270756447  0.000000000000
  CP1 CLGR1  1  0.334977918021  0.200657590935
  CP1 BRGR1  1  0.345668702638  0.236682781799
  CP1  IGR1  1  0.368832069310  0.301712530731
  CP1 SG2P1  1  0.355798221064  0.332305491450
  CP1 OG2S1  1  0.318906105146  0.157831660601
  CP1 SG2P2  1  0.352314807076  0.329421919951
  CP1 SEGD1  1  0.363041227642  0.330244580395
  CP1 BG201  1  0.396449929572  0.081561175077
  CP1 CC301  1  0.338541512893  0.041840000000
  CP1 CC3062  1  0.338541512893  0.041840000000
  CP1 CC311  1  0.338541512893  0.041840000000
  CP1 CC3161  1  0.338541512893  0.041840000000
  CP1 CC3162  1  0.338541512893  0.041840000000
  CP1 CC3163  1  0.338541512893  0.041840000000
  CP1 CC321  1  0.338541512893  0.041840000000
  CP1 CC3261  1  0.338541512893  0.041840000000
  CP1 CC3263  1  0.338541512893  0.041840000000
  CP1 CC331  1  0.338541512893  0.041840000000
  CP1 CC2O1  1  0.347450500075  0.138767581228
  CP1 CC2O2  1  0.347450500075  0.110698234855
  CP1 CC2O3  1  0.347450500075  0.125520000000
  CP1 CC2O4  1  0.329632525712  0.102486650838
  CP1 CC2O5  1  0.320723538531  0.130979917850
  CP1 OC2D1  1  0.293996576986  0.144938011577
  CP1 OC2D2  1  0.320723538531  0.144938011577
  CP1 OC2D3  1  0.293996576986  0.144938011577
  CP1 OC2D4  1  0.293996576986  0.144938011577
  CP1 OC3C61  1  0.316269044940  0.132309697301
  CP1 OC311  1  0.326514380198  0.183381431383
  CP1 NC2D1  1  0.307360057758  0.187114168357
  CP1  HCP1  1  0.189271432669  0.089736802707
  CP1  HCA1  1  0.288651184677  0.088756043175
  CP1  HCA2  1  0.288651184677  0.078275472531
  CP1  HCA3  1  0.288651184677  0.064818249282
  CP1 CC312  1  0.338541512893  0.041840000000
  CP1 CC322  1  0.338541512893  0.041840000000
  CP1  HCR1  1  0.240542653898  0.089736802707
  CP1 HCA3M  1  0.288651184677  0.064818249282
  CP1 CC321C  1  0.338541512893  0.041840000000
  CP1 CC321D  1  0.338541512893  0.041840000000
  CP1 CC311C  1  0.338541512893  0.041840000000
  CP1 CC311D  1  0.338541512893  0.041840000000
  CP1 OC301  1  0.316269044940  0.132309697301
  CP1 OC302  1  0.316269044940  0.132309697301
  CP1 HCP1M  1  0.189271432669  0.089736802707
  CP1 OC311M  1  0.326514380198  0.183381431383
  CP1 OC3C5M  1  0.316269044940  0.132309697301
  CP1 CC322C  1  0.338541512893  0.041840000000
  CP1 HCA2C2  1  0.285087589805  0.078275472531
  CP1 CC312C  1  0.338541512893  0.041840000000
  CP1 HCA1C2  1  0.288651184677  0.088756043175
  CP1 OC3C51  1  0.316269044940  0.132309697301
  CP1 CC3152  1  0.338541512893  0.041840000000
  CP1 CC3051  1  0.338541512893  0.041840000000
  CP1 CC3251  1  0.338541512893  0.041840000000
  CP1 CC3151  1  0.338541512893  0.041840000000
  CP1 CC3153  1  0.338541512893  0.041840000000
  CP1 OC2DP  1  0.320723538531  0.144938011577
  CP1 OC312  1  0.326959829558  0.163176000000
  CP1 OC30P  1  0.326959829558  0.163176000000
  CP1    PC  1  0.360813980847  0.320014464673
  CP1    SC  1  0.356359487256  0.286840588481
  CP1 CC312D  1  0.338541512893  0.041840000000
  CP1 OC303  1  0.316269044940  0.132309697301
  CP1 NC311  1  0.347450500075  0.088756043175
  CP1   HN1  1  0.189271432669  0.089736802707
  CP1   HN2  1  0.189271432669  0.089736802707
  CP1   HN3  1  0.267269615442  0.089736802707
  CP1   HN4  1  0.189271432669  0.089736802707
  CP1   HN5  1  0.189271432669  0.089736802707
  CP1   HN6  1  0.286869387241  0.062058748940
  CP1   HN7  1  0.286869387241  0.062058748940
  CP1   HN8  1  0.288651184677  0.070011711020
  CP1   HN9  1  0.288651184677  0.064818249282
  CP1   NN1  1  0.334087019303  0.187114168357
  CP1   NN2  1  0.334087019303  0.187114168357
  CP1  NN2B  1  0.334087019303  0.187114168357
  CP1  NN2G  1  0.334087019303  0.187114168357
  CP1  NN2U  1  0.334087019303  0.187114168357
  CP1   NN3  1  0.334087019303  0.187114168357
  CP1  NN3A  1  0.334087019303  0.187114168357
  CP1  NN3G  1  0.334087019303  0.187114168357
  CP1   NN4  1  0.334087019303  0.187114168357
  CP1   NN6  1  0.334087019303  0.187114168357
  CP1   ON1  1  0.320723538531  0.144938011577
  CP1  ON1C  1  0.320723538531  0.144938011577
  CP1   ON2  1  0.326959829558  0.163176000000
  CP1   ON3  1  0.320723538531  0.144938011577
  CP1   ON4  1  0.326959829558  0.163176000000
  CP1   ON5  1  0.326959829558  0.163176000000
  CP1   ON6  1  0.326959829558  0.163176000000
  CP1  ON6B  1  0.326959829558  0.163176000000
  CP1   CN1  1  0.338541512893  0.132309697301
  CP1  CN1T  1  0.338541512893  0.132309697301
  CP1   CN2  1  0.338541512893  0.132309697301
  CP1   CN3  1  0.338541512893  0.125520000000
  CP1  CN3T  1  0.338541512893  0.125520000000
  CP1   CN4  1  0.338541512893  0.114583559030
  CP1   CN5  1  0.338541512893  0.114583559030
  CP1  CN5G  1  0.338541512893  0.114583559030
  CP1   CN7  1  0.338541512893  0.041840000000
  CP1  CN7B  1  0.338541512893  0.041840000000
  CP1   CN8  1  0.338541512893  0.041840000000
  CP1  CN8B  1  0.338541512893  0.041840000000
  CP1   CN9  1  0.338541512893  0.041840000000
  CP1     P  1  0.360813980847  0.320014464673
  CP1    P2  1  0.360813980847  0.320014464673
  CP1    P3  1  0.360813980847  0.320014464673
  CP1    P4  1  0.360813980847  0.320014464673
  CP1   HOL  1  0.189271432669  0.089736802707
  CP1  HAL1  1  0.286869387241  0.062058748940
  CP1  HAL2  1  0.288651184677  0.070011711020
  CP1  HAL3  1  0.288651184677  0.064818249282
  CP1   HBL  1  0.286869387241  0.062058748940
  CP1   HCL  1  0.189271432669  0.089736802707
  CP1    HL  1  0.231633666716  0.089736802707
  CP1  HEL1  1  0.280633096214  0.073666921749
  CP1  HEL2  1  0.281523994932  0.067464972838
  CP1    CL  1  0.347450500075  0.110698234855
  CP1   CCL  1  0.347450500075  0.110698234855
  CP1  CTL1  1  0.338541512893  0.041840000000
  CP1  CTL2  1  0.338541512893  0.041840000000
  CP1  CTL3  1  0.338541512893  0.041840000000
  CP1  CTL5  1  0.338541512893  0.041840000000
  CP1  CEL1  1  0.355468588538  0.109105371453
  CP1  CEL2  1  0.354577689820  0.105847757841
  CP1  CRL1  1  0.338541512893  0.041840000000
  CP1  CRL2  1  0.338541512893  0.041840000000
  CP1   OBL  1  0.293996576986  0.144938011577
  CP1   OCL  1  0.320723538531  0.144938011577
  CP1   O2L  1  0.320723538531  0.144938011577
  CP1   OHL  1  0.326959829558  0.163176000000
  CP1   OSL  1  0.316269044940  0.132309697301
  CP1  OSLP  1  0.316269044940  0.132309697301
  CP1  NH3L  1  0.334087019303  0.187114168357
  CP1   NTL  1  0.334087019303  0.187114168357
  CP1    SL  1  0.356359487256  0.286840588481
  CP1    PL  1  0.360813980847  0.320014464673
  CP1 HCA1A  1  0.288651184677  0.088756043175
  CP1 HCA2A  1  0.288651184677  0.078275472531
  CP1 HCA3A  1  0.288651184677  0.064818249282
  CP1 CC30A  1  0.338541512893  0.041840000000
  CP1 CC31A  1  0.338541512893  0.041840000000
  CP1 CC32A  1  0.338541512893  0.041840000000
  CP1 CC33A  1  0.338541512893  0.041840000000
  CP1 CC326A  1  0.338541512893  0.041840000000
  CP1 HCA25A  1  0.285087589805  0.078275472531
  CP1 CC325A  1  0.338541512893  0.041840000000
  CP1 CC325B  1  0.338541512893  0.041840000000
  CP1 OC305A  1  0.316269044940  0.132309697301
  CP1 OC30A  1  0.316269044940  0.132309697301
  CP1  HSIO  1  0.189271432669  0.089736802707
  CP1  HSIA  1  0.286869387241  0.062058748940
  CP1   HAL  1  0.286869387241  0.062058748940
  CP1    AL  1  0.365268474438  0.337324864189
  CP1    SI  1  0.365268474438  0.324091246411
  CP1  SIH3  1  0.365268474438  0.324091246411
  CP1  OSIH  1  0.326959829558  0.163176000000
  CP1  OSIE  1  0.326959829558  0.163176000000
  CP1  OSIA  1  0.326959829558  0.163176000000
  CP1   OAL  1  0.326959829558  0.163176000000
  CP1    HT  1  0.189271432669  0.089736802707
  CP1    OT  1  0.326799467788  0.163176000000
  CP1   DUM  1  0.169270756447  0.000000000000
  CP1    CM  1  0.356359487256  0.138767581228
  CP1   CPA  1  0.329632525712  0.125520000000
  CP1   CPB  1  0.329632525712  0.125520000000
  CP1   CPM  1  0.329632525712  0.125520000000
  CP1   CST  1  0.308518226092  0.100764063435
  CP1  CT1X  1  0.338541512893  0.041840000000
  CP1  CT2X  1  0.338541512893  0.041840000000
  CP1  CT3X  1  0.338541512893  0.041840000000
  CP1    HB  1  0.286869387241  0.062058748940
  CP1   NPH  1  0.334087019303  0.187114168357
  CP1    OM  1  0.320723538531  0.144938011577
  CP1   OST  1  0.320010819556  0.169954883425
  CP1   POT  1  0.326403017859  0.123410269913
  CP1   CAL  1  0.291056611216  0.144938011577
  CP1    MG  1  0.274842254546  0.051243325419
  CP1   CES  1  0.356359487256  0.182376331798
  CP1    ZN  1  0.266378716724  0.209200000000
  CP1    FE  1  0.227179173126  0.000000000000
  CP1    HE  1  0.301123766731  0.061020452073
  CP1    NE  1  0.305578260322  0.122698965603
  CP1  CLAL  1  0.339272049842  0.072469005789
  CP1    AG  1  0.300901042052  0.893457908130
  CP1    AU  1  0.300722862308  0.962320000000
  CP1    CU  1  0.285800308779  0.908997471504
  CP1    NI  1  0.282949432881  0.994525446633
  CP1    PB  1  0.328073452955  0.716185437439
  CP1    PD  1  0.294842930769  1.037598257516
  CP1    PT  1  0.296001099102  1.168527606863
  CP1   CAP  1  0.346773417049  0.110698234855
  CP1    FA  1  0.320723538531  0.144938011577
  CP1    CN  1  0.325178032121  0.187114168357
  CP1    NC  1  0.334087019303  0.324091246411
  CP1   OCA  1  0.293996576986  0.144938011577
  CP1   COA  1  0.347450500075  0.138767581228
  CP1   CF1  1  0.338541512893  0.102486650838
  CP1   CF2  1  0.351904993665  0.085746484010
  CP1   CF3  1  0.374177461619  0.059170695450
  CP1   HF1  1  0.286869387241  0.070011711020
  CP1   HF2  1  0.285087589805  0.072469005789
  CP1    F1  1  0.314487247504  0.153729976257
  CP1    F2  1  0.314487247504  0.135577095411
  CP1    F3  1  0.311814551349  0.130309939452
  CP1    OX  1  0.320723538531  0.144938011577
  CP1    HX  1  0.189271432669  0.089736802707
  CP1  HPER  1  0.189271432669  0.089736802707
  CP1  OPER  1  0.318427692534  0.188901923946
  CP1   LIT  1  0.284864865125  0.020196198771
  CP1   RUB  1  0.338541512893  0.162045623205
  CP1   BAR  1  0.337650614175  0.162045623205
  CP1   CAD  1  0.290165712498  0.144938011577
  CP1  ON2B  1  0.326959829558  0.163176000000
  CP1    SP  1  0.365268474438  0.280671252536
  CP1   HNP  1  0.290272620344  0.072469005789
  CP1  HNE1  1  0.280633096214  0.073666921749
  CP1  HNE2  1  0.281523994932  0.067464972838
  CP1  CN3D  1  0.338541512893  0.125520000000
  CP1  CNE1  1  0.355468588538  0.109105371453
  CP1  CNE2  1  0.354577689820  0.105847757841
  CP1   CNA  1  0.346773417049  0.110698234855
  CP1  CNA2  1  0.338541512893  0.110698234855
  CP1   CNG  1  0.347450500075  0.138767581228
  CP1  NN1C  1  0.334087019303  0.187114168357
  CP1  NN2C  1  0.334087019303  0.187114168357
  CP1  NN3I  1  0.334087019303  0.187114168357
  CP1   NNG  1  0.334087019303  0.187114168357
  CP1   FNA  1  0.320723538531  0.144938011577
  CP1  ON2M  1  0.316269044940  0.132309697301
  CP1   CN6  1  0.338541512893  0.041840000000
  CP1  CN7E  1  0.338541512893  0.041840000000
  CP1  CT2P  1  0.338541512893  0.041840000000
  CP1  CTD1  1  0.338541512893  0.041840000000
  CP1  CPD1  1  0.338541512893  0.041840000000
  CP1  CC1A  1  0.355468588538  0.109105371453
  CP1  CC1B  1  0.355468588538  0.109105371453
  CP1   CC2  1  0.354577689820  0.105847757841
  CP1   NS1  1  0.334087019303  0.187114168357
  CP1   NS2  1  0.334087019303  0.187114168357
  CP1   NHL  1  0.307360057758  0.187114168357
  CP1  CTO1  1  0.338541512893  0.041840000000
  CP1  CEL3  1  0.355468588538  0.109105371453
  CP1  CTO2  1  0.338541512893  0.041840000000
  CP1  HN3B  1  0.249451641079  0.089736802707
  CP1  CN1A  1  0.347450500075  0.110698234855
  CP1  CN3A  1  0.329632525712  0.177512086349
  CP1  CN3B  1  0.329632525712  0.177512086349
  CP1  CN3C  1  0.329632525712  0.177512086349
  CP2     C  1  0.347450500075  0.138767581228
  CP2    CA  1  0.346773417049  0.110698234855
  CP2    CC  1  0.347450500075  0.110698234855
  CP2    CD  1  0.347450500075  0.110698234855
  CP2   CE1  1  0.355468588538  0.109105371453
  CP2   CE2  1  0.354577689820  0.105847757841
  CP2   CP1  1  0.338541512893  0.041840000000
  CP2   CP2  1  0.338541512893  0.041840000000
  CP2   CP3  1  0.338541512893  0.041840000000
  CP2  CPH1  1  0.329632525712  0.093557084179
  CP2  CPH2  1  0.329632525712  0.093557084179
  CP2    CS  1  0.365268474438  0.138767581228
  CP2   CPT  1  0.334977918021  0.131646486622
  CP2    CY  1  0.346559601357  0.113045454929
  CP2   CAI  1  0.346559601357  0.113045454929
  CP2    CT  1  0.338541512893  0.041840000000
  CP2   CT1  1  0.338541512893  0.041840000000
  CP2   CT2  1  0.338541512893  0.041840000000
  CP2  CT2A  1  0.338541512893  0.041840000000
  CP2   CT3  1  0.338541512893  0.041840000000
  CP2    C3  1  0.371950214824  0.059170695450
  CP2     H  1  0.189271432669  0.089736802707
  CP2    HA  1  0.286869387241  0.062058748940
  CP2   HB1  1  0.286869387241  0.062058748940
  CP2   HB2  1  0.288651184677  0.070011711020
  CP2   HE1  1  0.280633096214  0.073666921749
  CP2   HE2  1  0.281523994932  0.067464972838
  CP2    HC  1  0.189271432669  0.089736802707
  CP2    HP  1  0.290272620344  0.072469005789
  CP2   HR1  1  0.249451641079  0.089736802707
  CP2   HR2  1  0.231633666716  0.089736802707
  CP2   HR3  1  0.300054688270  0.036952087465
  CP2    HS  1  0.209361198763  0.132309697301
  CP2   HA1  1  0.288651184677  0.088756043175
  CP2   HA2  1  0.288651184677  0.077149148019
  CP2   HA3  1  0.288651184677  0.064818249282
  CP2     N  1  0.334087019303  0.004184000000
  CP2   NC2  1  0.334087019303  0.187114168357
  CP2   NH1  1  0.307360057758  0.187114168357
  CP2   NH2  1  0.334087019303  0.187114168357
  CP2   NH3  1  0.334087019303  0.187114168357
  CP2    NP  1  0.334087019303  0.187114168357
  CP2   NR1  1  0.334087019303  0.187114168357
  CP2   NR2  1  0.334087019303  0.187114168357
  CP2   NR3  1  0.334087019303  0.187114168357
  CP2    NY  1  0.334087019303  0.187114168357
  CP2     O  1  0.293996576986  0.144938011577
  CP2    OB  1  0.293996576986  0.144938011577
  CP2    OC  1  0.320723538531  0.144938011577
  CP2   OH1  1  0.326959829558  0.163176000000
  CP2    OS  1  0.326959829558  0.163176000000
  CP2     S  1  0.347450500075  0.280671252536
  CP2    SM  1  0.345223253279  0.257919081884
  CP2    SS  1  0.365268474438  0.286840588481
  CP2  HGA1  1  0.288651184677  0.088756043175
  CP2  HGA2  1  0.288651184677  0.078275472531
  CP2  HGA3  1  0.288651184677  0.064818249282
  CP2  HGA4  1  0.280633096214  0.073666921749
  CP2  HGA5  1  0.281523994932  0.067464972838
  CP2  HGA6  1  0.286869387241  0.070011711020
  CP2  HGA7  1  0.285087589805  0.072469005789
  CP2 HGAAM0  1  0.283305792369  0.070011711020
  CP2 HGAAM1  1  0.283305792369  0.070011711020
  CP2 HGAAM2  1  0.281523994932  0.083680000000
  CP2  HGP1  1  0.189271432669  0.089736802707
  CP2  HGP2  1  0.189271432669  0.089736802707
  CP2  HGP3  1  0.209361198763  0.132309697301
  CP2  HGP4  1  0.189271432669  0.089736802707
  CP2  HGP5  1  0.231633666716  0.089736802707
  CP2 HGPAM1  1  0.247224394284  0.039692909190
  CP2 HGPAM2  1  0.247224394284  0.041840000000
  CP2 HGPAM3  1  0.246778944925  0.045833423612
  CP2 HGR51  1  0.290272620344  0.072469005789
  CP2 HGR52  1  0.249451641079  0.089736802707
  CP2 HGR53  1  0.231633666716  0.089736802707
  CP2 HGR61  1  0.290272620344  0.072469005789
  CP2 HGR62  1  0.267269615442  0.089736802707
  CP2 HGR63  1  0.249451641079  0.089736802707
  CP2 HGR71  1  0.290272620344  0.072469005789
  CP2 HGTIP3  1  0.189271432669  0.089736802707
  CP2 CG1T1  1  0.333196120584  0.170981810495
  CP2 CG1T2  1  0.346782326036  0.134409982486
  CP2 CG1N1  1  0.335868816739  0.177512086349
  CP2 CG2D1  1  0.355468588538  0.109105371453
  CP2 CG2D2  1  0.354577689820  0.105847757841
  CP2 CG2D1O  1  0.355468588538  0.109105371453
  CP2 CG2D2O  1  0.355468588538  0.109105371453
  CP2 CG2DC1  1  0.355468588538  0.109105371453
  CP2 CG2DC2  1  0.355468588538  0.109105371453
  CP2 CG2DC3  1  0.354577689820  0.105847757841
  CP2 CG2N1  1  0.347450500075  0.138767581228
  CP2 CG2N2  1  0.347450500075  0.138767581228
  CP2 CG2O1  1  0.347450500075  0.138767581228
  CP2 CG2O2  1  0.320723538531  0.130979917850
  CP2 CG2O3  1  0.347450500075  0.110698234855
  CP2 CG2O4  1  0.329632525712  0.102486650838
  CP2 CG2O5  1  0.347450500075  0.125520000000
  CP2 CG2O6  1  0.347450500075  0.110698234855
  CP2 CG2O7  1  0.308518226092  0.100764063435
  CP2 CG2R51  1  0.356359487256  0.093557084179
  CP2 CG2R52  1  0.365268474438  0.059170695450
  CP2 CG2R53  1  0.365268474438  0.059170695450
  CP2 CG2R57  1  0.356359487256  0.093557084179
  CP2 CG25C1  1  0.355468588538  0.109105371453
  CP2 CG25C2  1  0.355468588538  0.109105371453
  CP2 CG251O  1  0.355468588538  0.109105371453
  CP2 CG252O  1  0.355468588538  0.109105371453
  CP2 CG2R61  1  0.346773417049  0.110698234855
  CP2 CG2R62  1  0.338541512893  0.125520000000
  CP2 CG2R63  1  0.338541512893  0.132309697301
  CP2 CG2R64  1  0.356359487256  0.083680000000
  CP2 CG2R66  1  0.338541512893  0.110698234855
  CP2 CG2R67  1  0.346773417049  0.110698234855
  CP2 CG2RC0  1  0.334977918021  0.131646486622
  CP2 CG2R71  1  0.346987232741  0.108300154755
  CP2 CG2RC7  1  0.334977918021  0.131646486622
  CP2 CG301  1  0.338541512893  0.041840000000
  CP2 CG302  1  0.374177461619  0.059170695450
  CP2 CG311  1  0.338541512893  0.041840000000
  CP2 CG312  1  0.351904993665  0.085746484010
  CP2 CG314  1  0.338541512893  0.041840000000
  CP2 CG321  1  0.338541512893  0.041840000000
  CP2 CG322  1  0.338541512893  0.102486650838
  CP2 CG323  1  0.365268474438  0.138767581228
  CP2 CG324  1  0.338541512893  0.041840000000
  CP2 CG331  1  0.338541512893  0.041840000000
  CP2 CG334  1  0.338541512893  0.041840000000
  CP2 CG3C50  1  0.338541512893  0.041840000000
  CP2 CG3C51  1  0.338541512893  0.041840000000
  CP2 CG3C52  1  0.338541512893  0.041840000000
  CP2 CG3C53  1  0.338541512893  0.041840000000
  CP2 CG3C54  1  0.338541512893  0.041840000000
  CP2 CG3C31  1  0.338541512893  0.041840000000
  CP2 CG3C41  1  0.338541512893  0.041840000000
  CP2 CG3RC1  1  0.338541512893  0.041840000000
  CP2 CG3AM0  1  0.344777803920  0.110698234855
  CP2 CG3AM1  1  0.345668702638  0.116852760686
  CP2 CG3AM2  1  0.346559601357  0.118341390899
  CP2 NG1T1  1  0.328741626994  0.177512086349
  CP2 NG2D1  1  0.334087019303  0.187114168357
  CP2 NG2S0  1  0.334087019303  0.004184000000
  CP2 NG2S1  1  0.307360057758  0.187114168357
  CP2 NG2S2  1  0.334087019303  0.187114168357
  CP2 NG2S3  1  0.334087019303  0.187114168357
  CP2 NG2O1  1  0.334087019303  0.187114168357
  CP2 NG2P1  1  0.334087019303  0.187114168357
  CP2 NG2R43  1  0.334087019303  0.187114168357
  CP2 NG2R50  1  0.334087019303  0.187114168357
  CP2 NG2R51  1  0.334087019303  0.187114168357
  CP2 NG2R52  1  0.334087019303  0.187114168357
  CP2 NG2R53  1  0.334087019303  0.187114168357
  CP2 NG2R57  1  0.334087019303  0.187114168357
  CP2 NG2R60  1  0.337650614175  0.102486650838
  CP2 NG2R61  1  0.334087019303  0.187114168357
  CP2 NG2R62  1  0.352795892384  0.093557084179
  CP2 NG2R67  1  0.334087019303  0.187114168357
  CP2 NG2RC0  1  0.334087019303  0.187114168357
  CP2 NG301  1  0.347450500075  0.078275472531
  CP2 NG311  1  0.347450500075  0.088756043175
  CP2 NG321  1  0.346559601357  0.102486650838
  CP2 NG331  1  0.345668702638  0.110698234855
  CP2 NG3C51  1  0.334087019303  0.187114168357
  CP2 NG3N1  1  0.351904993665  0.102486650838
  CP2 NG3P0  1  0.334087019303  0.187114168357
  CP2 NG3P1  1  0.334087019303  0.187114168357
  CP2 NG3P2  1  0.334087019303  0.187114168357
  CP2 NG3P3  1  0.334087019303  0.187114168357
  CP2 OG2D1  1  0.293996576986  0.144938011577
  CP2 OG2D2  1  0.320723538531  0.144938011577
  CP2 OG2D3  1  0.293996576986  0.144938011577
  CP2 OG2D4  1  0.320723538531  0.144938011577
  CP2 OG2D5  1  0.320010819556  0.169954883425
  CP2 OG2N1  1  0.320723538531  0.144938011577
  CP2 OG2P1  1  0.320723538531  0.144938011577
  CP2 OG2R50  1  0.320723538531  0.144938011577
  CP2 OG3R60  1  0.316269044940  0.132309697301
  CP2 OG301  1  0.316269044940  0.132309697301
  CP2 OG302  1  0.316269044940  0.132309697301
  CP2 OG303  1  0.316269044940  0.132309697301
  CP2 OG304  1  0.316269044940  0.132309697301
  CP2 OG311  1  0.326514380198  0.183381431383
  CP2 OG312  1  0.325178032121  0.144938011577
  CP2 OG3C31  1  0.316269044940  0.132309697301
  CP2 OG3C51  1  0.316269044940  0.132309697301
  CP2 OG3C61  1  0.316269044940  0.132309697301
  CP2 OGTIP3  1  0.326799467788  0.163176000000
  CP2 SG2D1  1  0.351904993665  0.314496560236
  CP2 SG2R50  1  0.347450500075  0.280671252536
  CP2 SG311  1  0.347450500075  0.280671252536
  CP2 SG301  1  0.345223253279  0.257919081884
  CP2 SG302  1  0.365268474438  0.286840588481
  CP2 SG3O1  1  0.356359487256  0.286840588481
  CP2 SG3O2  1  0.347450500075  0.247528778125
  CP2 SG3O3  1  0.347450500075  0.247528778125
  CP2  FGA1  1  0.314487247504  0.153729976257
  CP2  FGA2  1  0.314487247504  0.135577095411
  CP2  FGA3  1  0.311814551349  0.130309939452
  CP2  FGP1  1  0.311814551349  0.130309939452
  CP2  FGR1  1  0.320723538531  0.144938011577
  CP2 CLGA1  1  0.339432411611  0.245040988571
  CP2 CLGA3  1  0.339432411611  0.232955260941
  CP2 BRGA1  1  0.344777803920  0.289876023155
  CP2 BRGA2  1  0.351904993665  0.304599797767
  CP2 BRGA3  1  0.347450500075  0.307459952514
  CP2   SOD  1  0.294954293108  0.090610410351
  CP2   CLA  1  0.371504765465  0.162045623205
  CP2   PG0  1  0.360813980847  0.320014464673
  CP2   PG1  1  0.360813980847  0.320014464673
  CP2   PG2  1  0.360813980847  0.320014464673
  CP2  ALG1  1  0.347450500075  0.337324864189
  CP2   LPH  1  0.169270756447  0.000000000000
  CP2 CLGR1  1  0.334977918021  0.200657590935
  CP2 BRGR1  1  0.345668702638  0.236682781799
  CP2  IGR1  1  0.368832069310  0.301712530731
  CP2 SG2P1  1  0.355798221064  0.332305491450
  CP2 OG2S1  1  0.318906105146  0.157831660601
  CP2 SG2P2  1  0.352314807076  0.329421919951
  CP2 SEGD1  1  0.363041227642  0.330244580395
  CP2 BG201  1  0.396449929572  0.081561175077
  CP2 CC301  1  0.338541512893  0.041840000000
  CP2 CC3062  1  0.338541512893  0.041840000000
  CP2 CC311  1  0.338541512893  0.041840000000
  CP2 CC3161  1  0.338541512893  0.041840000000
  CP2 CC3162  1  0.338541512893  0.041840000000
  CP2 CC3163  1  0.338541512893  0.041840000000
  CP2 CC321  1  0.338541512893  0.041840000000
  CP2 CC3261  1  0.338541512893  0.041840000000
  CP2 CC3263  1  0.338541512893  0.041840000000
  CP2 CC331  1  0.338541512893  0.041840000000
  CP2 CC2O1  1  0.347450500075  0.138767581228
  CP2 CC2O2  1  0.347450500075  0.110698234855
  CP2 CC2O3  1  0.347450500075  0.125520000000
  CP2 CC2O4  1  0.329632525712  0.102486650838
  CP2 CC2O5  1  0.320723538531  0.130979917850
  CP2 OC2D1  1  0.293996576986  0.144938011577
  CP2 OC2D2  1  0.320723538531  0.144938011577
  CP2 OC2D3  1  0.293996576986  0.144938011577
  CP2 OC2D4  1  0.293996576986  0.144938011577
  CP2 OC3C61  1  0.316269044940  0.132309697301
  CP2 OC311  1  0.326514380198  0.183381431383
  CP2 NC2D1  1  0.307360057758  0.187114168357
  CP2  HCP1  1  0.189271432669  0.089736802707
  CP2  HCA1  1  0.288651184677  0.088756043175
  CP2  HCA2  1  0.288651184677  0.078275472531
  CP2  HCA3  1  0.288651184677  0.064818249282
  CP2 CC312  1  0.338541512893  0.041840000000
  CP2 CC322  1  0.338541512893  0.041840000000
  CP2  HCR1  1  0.240542653898  0.089736802707
  CP2 HCA3M  1  0.288651184677  0.064818249282
  CP2 CC321C  1  0.338541512893  0.041840000000
  CP2 CC321D  1  0.338541512893  0.041840000000
  CP2 CC311C  1  0.338541512893  0.041840000000
  CP2 CC311D  1  0.338541512893  0.041840000000
  CP2 OC301  1  0.316269044940  0.132309697301
  CP2 OC302  1  0.316269044940  0.132309697301
  CP2 HCP1M  1  0.189271432669  0.089736802707
  CP2 OC311M  1  0.326514380198  0.183381431383
  CP2 OC3C5M  1  0.316269044940  0.132309697301
  CP2 CC322C  1  0.338541512893  0.041840000000
  CP2 HCA2C2  1  0.285087589805  0.078275472531
  CP2 CC312C  1  0.338541512893  0.041840000000
  CP2 HCA1C2  1  0.288651184677  0.088756043175
  CP2 OC3C51  1  0.316269044940  0.132309697301
  CP2 CC3152  1  0.338541512893  0.041840000000
  CP2 CC3051  1  0.338541512893  0.041840000000
  CP2 CC3251  1  0.338541512893  0.041840000000
  CP2 CC3151  1  0.338541512893  0.041840000000
  CP2 CC3153  1  0.338541512893  0.041840000000
  CP2 OC2DP  1  0.320723538531  0.144938011577
  CP2 OC312  1  0.326959829558  0.163176000000
  CP2 OC30P  1  0.326959829558  0.163176000000
  CP2    PC  1  0.360813980847  0.320014464673
  CP2    SC  1  0.356359487256  0.286840588481
  CP2 CC312D  1  0.338541512893  0.041840000000
  CP2 OC303  1  0.316269044940  0.132309697301
  CP2 NC311  1  0.347450500075  0.088756043175
  CP2   HN1  1  0.189271432669  0.089736802707
  CP2   HN2  1  0.189271432669  0.089736802707
  CP2   HN3  1  0.267269615442  0.089736802707
  CP2   HN4  1  0.189271432669  0.089736802707
  CP2   HN5  1  0.189271432669  0.089736802707
  CP2   HN6  1  0.286869387241  0.062058748940
  CP2   HN7  1  0.286869387241  0.062058748940
  CP2   HN8  1  0.288651184677  0.070011711020
  CP2   HN9  1  0.288651184677  0.064818249282
  CP2   NN1  1  0.334087019303  0.187114168357
  CP2   NN2  1  0.334087019303  0.187114168357
  CP2  NN2B  1  0.334087019303  0.187114168357
  CP2  NN2G  1  0.334087019303  0.187114168357
  CP2  NN2U  1  0.334087019303  0.187114168357
  CP2   NN3  1  0.334087019303  0.187114168357
  CP2  NN3A  1  0.334087019303  0.187114168357
  CP2  NN3G  1  0.334087019303  0.187114168357
  CP2   NN4  1  0.334087019303  0.187114168357
  CP2   NN6  1  0.334087019303  0.187114168357
  CP2   ON1  1  0.320723538531  0.144938011577
  CP2  ON1C  1  0.320723538531  0.144938011577
  CP2   ON2  1  0.326959829558  0.163176000000
  CP2   ON3  1  0.320723538531  0.144938011577
  CP2   ON4  1  0.326959829558  0.163176000000
  CP2   ON5  1  0.326959829558  0.163176000000
  CP2   ON6  1  0.326959829558  0.163176000000
  CP2  ON6B  1  0.326959829558  0.163176000000
  CP2   CN1  1  0.338541512893  0.132309697301
  CP2  CN1T  1  0.338541512893  0.132309697301
  CP2   CN2  1  0.338541512893  0.132309697301
  CP2   CN3  1  0.338541512893  0.125520000000
  CP2  CN3T  1  0.338541512893  0.125520000000
  CP2   CN4  1  0.338541512893  0.114583559030
  CP2   CN5  1  0.338541512893  0.114583559030
  CP2  CN5G  1  0.338541512893  0.114583559030
  CP2   CN7  1  0.338541512893  0.041840000000
  CP2  CN7B  1  0.338541512893  0.041840000000
  CP2   CN8  1  0.338541512893  0.041840000000
  CP2  CN8B  1  0.338541512893  0.041840000000
  CP2   CN9  1  0.338541512893  0.041840000000
  CP2     P  1  0.360813980847  0.320014464673
  CP2    P2  1  0.360813980847  0.320014464673
  CP2    P3  1  0.360813980847  0.320014464673
  CP2    P4  1  0.360813980847  0.320014464673
  CP2   HOL  1  0.189271432669  0.089736802707
  CP2  HAL1  1  0.286869387241  0.062058748940
  CP2  HAL2  1  0.288651184677  0.070011711020
  CP2  HAL3  1  0.288651184677  0.064818249282
  CP2   HBL  1  0.286869387241  0.062058748940
  CP2   HCL  1  0.189271432669  0.089736802707
  CP2    HL  1  0.231633666716  0.089736802707
  CP2  HEL1  1  0.280633096214  0.073666921749
  CP2  HEL2  1  0.281523994932  0.067464972838
  CP2    CL  1  0.347450500075  0.110698234855
  CP2   CCL  1  0.347450500075  0.110698234855
  CP2  CTL1  1  0.338541512893  0.041840000000
  CP2  CTL2  1  0.338541512893  0.041840000000
  CP2  CTL3  1  0.338541512893  0.041840000000
  CP2  CTL5  1  0.338541512893  0.041840000000
  CP2  CEL1  1  0.355468588538  0.109105371453
  CP2  CEL2  1  0.354577689820  0.105847757841
  CP2  CRL1  1  0.338541512893  0.041840000000
  CP2  CRL2  1  0.338541512893  0.041840000000
  CP2   OBL  1  0.293996576986  0.144938011577
  CP2   OCL  1  0.320723538531  0.144938011577
  CP2   O2L  1  0.320723538531  0.144938011577
  CP2   OHL  1  0.326959829558  0.163176000000
  CP2   OSL  1  0.316269044940  0.132309697301
  CP2  OSLP  1  0.316269044940  0.132309697301
  CP2  NH3L  1  0.334087019303  0.187114168357
  CP2   NTL  1  0.334087019303  0.187114168357
  CP2    SL  1  0.356359487256  0.286840588481
  CP2    PL  1  0.360813980847  0.320014464673
  CP2 HCA1A  1  0.288651184677  0.088756043175
  CP2 HCA2A  1  0.288651184677  0.078275472531
  CP2 HCA3A  1  0.288651184677  0.064818249282
  CP2 CC30A  1  0.338541512893  0.041840000000
  CP2 CC31A  1  0.338541512893  0.041840000000
  CP2 CC32A  1  0.338541512893  0.041840000000
  CP2 CC33A  1  0.338541512893  0.041840000000
  CP2 CC326A  1  0.338541512893  0.041840000000
  CP2 HCA25A  1  0.285087589805  0.078275472531
  CP2 CC325A  1  0.338541512893  0.041840000000
  CP2 CC325B  1  0.338541512893  0.041840000000
  CP2 OC305A  1  0.316269044940  0.132309697301
  CP2 OC30A  1  0.316269044940  0.132309697301
  CP2  HSIO  1  0.189271432669  0.089736802707
  CP2  HSIA  1  0.286869387241  0.062058748940
  CP2   HAL  1  0.286869387241  0.062058748940
  CP2    AL  1  0.365268474438  0.337324864189
  CP2    SI  1  0.365268474438  0.324091246411
  CP2  SIH3  1  0.365268474438  0.324091246411
  CP2  OSIH  1  0.326959829558  0.163176000000
  CP2  OSIE  1  0.326959829558  0.163176000000
  CP2  OSIA  1  0.326959829558  0.163176000000
  CP2   OAL  1  0.326959829558  0.163176000000
  CP2    HT  1  0.189271432669  0.089736802707
  CP2    OT  1  0.326799467788  0.163176000000
  CP2   DUM  1  0.169270756447  0.000000000000
  CP2    CM  1  0.356359487256  0.138767581228
  CP2   CPA  1  0.329632525712  0.125520000000
  CP2   CPB  1  0.329632525712  0.125520000000
  CP2   CPM  1  0.329632525712  0.125520000000
  CP2   CST  1  0.308518226092  0.100764063435
  CP2  CT1X  1  0.338541512893  0.041840000000
  CP2  CT2X  1  0.338541512893  0.041840000000
  CP2  CT3X  1  0.338541512893  0.041840000000
  CP2    HB  1  0.286869387241  0.062058748940
  CP2   NPH  1  0.334087019303  0.187114168357
  CP2    OM  1  0.320723538531  0.144938011577
  CP2   OST  1  0.320010819556  0.169954883425
  CP2   POT  1  0.326403017859  0.123410269913
  CP2   CAL  1  0.291056611216  0.144938011577
  CP2    MG  1  0.274842254546  0.051243325419
  CP2   CES  1  0.356359487256  0.182376331798
  CP2    ZN  1  0.266378716724  0.209200000000
  CP2    FE  1  0.227179173126  0.000000000000
  CP2    HE  1  0.301123766731  0.061020452073
  CP2    NE  1  0.305578260322  0.122698965603
  CP2  CLAL  1  0.339272049842  0.072469005789
  CP2    AG  1  0.300901042052  0.893457908130
  CP2    AU  1  0.300722862308  0.962320000000
  CP2    CU  1  0.285800308779  0.908997471504
  CP2    NI  1  0.282949432881  0.994525446633
  CP2    PB  1  0.328073452955  0.716185437439
  CP2    PD  1  0.294842930769  1.037598257516
  CP2    PT  1  0.296001099102  1.168527606863
  CP2   CAP  1  0.346773417049  0.110698234855
  CP2    FA  1  0.320723538531  0.144938011577
  CP2    CN  1  0.325178032121  0.187114168357
  CP2    NC  1  0.334087019303  0.324091246411
  CP2   OCA  1  0.293996576986  0.144938011577
  CP2   COA  1  0.347450500075  0.138767581228
  CP2   CF1  1  0.338541512893  0.102486650838
  CP2   CF2  1  0.351904993665  0.085746484010
  CP2   CF3  1  0.374177461619  0.059170695450
  CP2   HF1  1  0.286869387241  0.070011711020
  CP2   HF2  1  0.285087589805  0.072469005789
  CP2    F1  1  0.314487247504  0.153729976257
  CP2    F2  1  0.314487247504  0.135577095411
  CP2    F3  1  0.311814551349  0.130309939452
  CP2    OX  1  0.320723538531  0.144938011577
  CP2    HX  1  0.189271432669  0.089736802707
  CP2  HPER  1  0.189271432669  0.089736802707
  CP2  OPER  1  0.318427692534  0.188901923946
  CP2   LIT  1  0.284864865125  0.020196198771
  CP2   RUB  1  0.338541512893  0.162045623205
  CP2   BAR  1  0.337650614175  0.162045623205
  CP2   CAD  1  0.290165712498  0.144938011577
  CP2  ON2B  1  0.326959829558  0.163176000000
  CP2    SP  1  0.365268474438  0.280671252536
  CP2   HNP  1  0.290272620344  0.072469005789
  CP2  HNE1  1  0.280633096214  0.073666921749
  CP2  HNE2  1  0.281523994932  0.067464972838
  CP2  CN3D  1  0.338541512893  0.125520000000
  CP2  CNE1  1  0.355468588538  0.109105371453
  CP2  CNE2  1  0.354577689820  0.105847757841
  CP2   CNA  1  0.346773417049  0.110698234855
  CP2  CNA2  1  0.338541512893  0.110698234855
  CP2   CNG  1  0.347450500075  0.138767581228
  CP2  NN1C  1  0.334087019303  0.187114168357
  CP2  NN2C  1  0.334087019303  0.187114168357
  CP2  NN3I  1  0.334087019303  0.187114168357
  CP2   NNG  1  0.334087019303  0.187114168357
  CP2   FNA  1  0.320723538531  0.144938011577
  CP2  ON2M  1  0.316269044940  0.132309697301
  CP2   CN6  1  0.338541512893  0.041840000000
  CP2  CN7E  1  0.338541512893  0.041840000000
  CP2  CT2P  1  0.338541512893  0.041840000000
  CP2  CTD1  1  0.338541512893  0.041840000000
  CP2  CPD1  1  0.338541512893  0.041840000000
  CP2  CC1A  1  0.355468588538  0.109105371453
  CP2  CC1B  1  0.355468588538  0.109105371453
  CP2   CC2  1  0.354577689820  0.105847757841
  CP2   NS1  1  0.334087019303  0.187114168357
  CP2   NS2  1  0.334087019303  0.187114168357
  CP2   NHL  1  0.307360057758  0.187114168357
  CP2  CTO1  1  0.338541512893  0.041840000000
  CP2  CEL3  1  0.355468588538  0.109105371453
  CP2  CTO2  1  0.338541512893  0.041840000000
  CP2  HN3B  1  0.249451641079  0.089736802707
  CP2  CN1A  1  0.347450500075  0.110698234855
  CP2  CN3A  1  0.329632525712  0.177512086349
  CP2  CN3B  1  0.329632525712  0.177512086349
  CP2  CN3C  1  0.329632525712  0.177512086349
  CP3     C  1  0.347450500075  0.138767581228
  CP3    CA  1  0.346773417049  0.110698234855
  CP3    CC  1  0.347450500075  0.110698234855
  CP3    CD  1  0.347450500075  0.110698234855
  CP3   CE1  1  0.355468588538  0.109105371453
  CP3   CE2  1  0.354577689820  0.105847757841
  CP3   CP1  1  0.338541512893  0.041840000000
  CP3   CP2  1  0.338541512893  0.041840000000
  CP3   CP3  1  0.338541512893  0.041840000000
  CP3  CPH1  1  0.329632525712  0.093557084179
  CP3  CPH2  1  0.329632525712  0.093557084179
  CP3    CS  1  0.365268474438  0.138767581228
  CP3   CPT  1  0.334977918021  0.131646486622
  CP3    CY  1  0.346559601357  0.113045454929
  CP3   CAI  1  0.346559601357  0.113045454929
  CP3    CT  1  0.338541512893  0.041840000000
  CP3   CT1  1  0.338541512893  0.041840000000
  CP3   CT2  1  0.338541512893  0.041840000000
  CP3  CT2A  1  0.338541512893  0.041840000000
  CP3   CT3  1  0.338541512893  0.041840000000
  CP3    C3  1  0.371950214824  0.059170695450
  CP3     H  1  0.189271432669  0.089736802707
  CP3    HA  1  0.286869387241  0.062058748940
  CP3   HB1  1  0.286869387241  0.062058748940
  CP3   HB2  1  0.288651184677  0.070011711020
  CP3   HE1  1  0.280633096214  0.073666921749
  CP3   HE2  1  0.281523994932  0.067464972838
  CP3    HC  1  0.189271432669  0.089736802707
  CP3    HP  1  0.290272620344  0.072469005789
  CP3   HR1  1  0.249451641079  0.089736802707
  CP3   HR2  1  0.231633666716  0.089736802707
  CP3   HR3  1  0.300054688270  0.036952087465
  CP3    HS  1  0.209361198763  0.132309697301
  CP3   HA1  1  0.288651184677  0.088756043175
  CP3   HA2  1  0.288651184677  0.077149148019
  CP3   HA3  1  0.288651184677  0.064818249282
  CP3     N  1  0.334087019303  0.004184000000
  CP3   NC2  1  0.334087019303  0.187114168357
  CP3   NH1  1  0.307360057758  0.187114168357
  CP3   NH2  1  0.334087019303  0.187114168357
  CP3   NH3  1  0.334087019303  0.187114168357
  CP3    NP  1  0.334087019303  0.187114168357
  CP3   NR1  1  0.334087019303  0.187114168357
  CP3   NR2  1  0.334087019303  0.187114168357
  CP3   NR3  1  0.334087019303  0.187114168357
  CP3    NY  1  0.334087019303  0.187114168357
  CP3     O  1  0.293996576986  0.144938011577
  CP3    OB  1  0.293996576986  0.144938011577
  CP3    OC  1  0.320723538531  0.144938011577
  CP3   OH1  1  0.326959829558  0.163176000000
  CP3    OS  1  0.326959829558  0.163176000000
  CP3     S  1  0.347450500075  0.280671252536
  CP3    SM  1  0.345223253279  0.257919081884
  CP3    SS  1  0.365268474438  0.286840588481
  CP3  HGA1  1  0.288651184677  0.088756043175
  CP3  HGA2  1  0.288651184677  0.078275472531
  CP3  HGA3  1  0.288651184677  0.064818249282
  CP3  HGA4  1  0.280633096214  0.073666921749
  CP3  HGA5  1  0.281523994932  0.067464972838
  CP3  HGA6  1  0.286869387241  0.070011711020
  CP3  HGA7  1  0.285087589805  0.072469005789
  CP3 HGAAM0  1  0.283305792369  0.070011711020
  CP3 HGAAM1  1  0.283305792369  0.070011711020
  CP3 HGAAM2  1  0.281523994932  0.083680000000
  CP3  HGP1  1  0.189271432669  0.089736802707
  CP3  HGP2  1  0.189271432669  0.089736802707
  CP3  HGP3  1  0.209361198763  0.132309697301
  CP3  HGP4  1  0.189271432669  0.089736802707
  CP3  HGP5  1  0.231633666716  0.089736802707
  CP3 HGPAM1  1  0.247224394284  0.039692909190
  CP3 HGPAM2  1  0.247224394284  0.041840000000
  CP3 HGPAM3  1  0.246778944925  0.045833423612
  CP3 HGR51  1  0.290272620344  0.072469005789
  CP3 HGR52  1  0.249451641079  0.089736802707
  CP3 HGR53  1  0.231633666716  0.089736802707
  CP3 HGR61  1  0.290272620344  0.072469005789
  CP3 HGR62  1  0.267269615442  0.089736802707
  CP3 HGR63  1  0.249451641079  0.089736802707
  CP3 HGR71  1  0.290272620344  0.072469005789
  CP3 HGTIP3  1  0.189271432669  0.089736802707
  CP3 CG1T1  1  0.333196120584  0.170981810495
  CP3 CG1T2  1  0.346782326036  0.134409982486
  CP3 CG1N1  1  0.335868816739  0.177512086349
  CP3 CG2D1  1  0.355468588538  0.109105371453
  CP3 CG2D2  1  0.354577689820  0.105847757841
  CP3 CG2D1O  1  0.355468588538  0.109105371453
  CP3 CG2D2O  1  0.355468588538  0.109105371453
  CP3 CG2DC1  1  0.355468588538  0.109105371453
  CP3 CG2DC2  1  0.355468588538  0.109105371453
  CP3 CG2DC3  1  0.354577689820  0.105847757841
  CP3 CG2N1  1  0.347450500075  0.138767581228
  CP3 CG2N2  1  0.347450500075  0.138767581228
  CP3 CG2O1  1  0.347450500075  0.138767581228
  CP3 CG2O2  1  0.320723538531  0.130979917850
  CP3 CG2O3  1  0.347450500075  0.110698234855
  CP3 CG2O4  1  0.329632525712  0.102486650838
  CP3 CG2O5  1  0.347450500075  0.125520000000
  CP3 CG2O6  1  0.347450500075  0.110698234855
  CP3 CG2O7  1  0.308518226092  0.100764063435
  CP3 CG2R51  1  0.356359487256  0.093557084179
  CP3 CG2R52  1  0.365268474438  0.059170695450
  CP3 CG2R53  1  0.365268474438  0.059170695450
  CP3 CG2R57  1  0.356359487256  0.093557084179
  CP3 CG25C1  1  0.355468588538  0.109105371453
  CP3 CG25C2  1  0.355468588538  0.109105371453
  CP3 CG251O  1  0.355468588538  0.109105371453
  CP3 CG252O  1  0.355468588538  0.109105371453
  CP3 CG2R61  1  0.346773417049  0.110698234855
  CP3 CG2R62  1  0.338541512893  0.125520000000
  CP3 CG2R63  1  0.338541512893  0.132309697301
  CP3 CG2R64  1  0.356359487256  0.083680000000
  CP3 CG2R66  1  0.338541512893  0.110698234855
  CP3 CG2R67  1  0.346773417049  0.110698234855
  CP3 CG2RC0  1  0.334977918021  0.131646486622
  CP3 CG2R71  1  0.346987232741  0.108300154755
  CP3 CG2RC7  1  0.334977918021  0.131646486622
  CP3 CG301  1  0.338541512893  0.041840000000
  CP3 CG302  1  0.374177461619  0.059170695450
  CP3 CG311  1  0.338541512893  0.041840000000
  CP3 CG312  1  0.351904993665  0.085746484010
  CP3 CG314  1  0.338541512893  0.041840000000
  CP3 CG321  1  0.338541512893  0.041840000000
  CP3 CG322  1  0.338541512893  0.102486650838
  CP3 CG323  1  0.365268474438  0.138767581228
  CP3 CG324  1  0.338541512893  0.041840000000
  CP3 CG331  1  0.338541512893  0.041840000000
  CP3 CG334  1  0.338541512893  0.041840000000
  CP3 CG3C50  1  0.338541512893  0.041840000000
  CP3 CG3C51  1  0.338541512893  0.041840000000
  CP3 CG3C52  1  0.338541512893  0.041840000000
  CP3 CG3C53  1  0.338541512893  0.041840000000
  CP3 CG3C54  1  0.338541512893  0.041840000000
  CP3 CG3C31  1  0.338541512893  0.041840000000
  CP3 CG3C41  1  0.338541512893  0.041840000000
  CP3 CG3RC1  1  0.338541512893  0.041840000000
  CP3 CG3AM0  1  0.344777803920  0.110698234855
  CP3 CG3AM1  1  0.345668702638  0.116852760686
  CP3 CG3AM2  1  0.346559601357  0.118341390899
  CP3 NG1T1  1  0.328741626994  0.177512086349
  CP3 NG2D1  1  0.334087019303  0.187114168357
  CP3 NG2S0  1  0.334087019303  0.004184000000
  CP3 NG2S1  1  0.307360057758  0.187114168357
  CP3 NG2S2  1  0.334087019303  0.187114168357
  CP3 NG2S3  1  0.334087019303  0.187114168357
  CP3 NG2O1  1  0.334087019303  0.187114168357
  CP3 NG2P1  1  0.334087019303  0.187114168357
  CP3 NG2R43  1  0.334087019303  0.187114168357
  CP3 NG2R50  1  0.334087019303  0.187114168357
  CP3 NG2R51  1  0.334087019303  0.187114168357
  CP3 NG2R52  1  0.334087019303  0.187114168357
  CP3 NG2R53  1  0.334087019303  0.187114168357
  CP3 NG2R57  1  0.334087019303  0.187114168357
  CP3 NG2R60  1  0.337650614175  0.102486650838
  CP3 NG2R61  1  0.334087019303  0.187114168357
  CP3 NG2R62  1  0.352795892384  0.093557084179
  CP3 NG2R67  1  0.334087019303  0.187114168357
  CP3 NG2RC0  1  0.334087019303  0.187114168357
  CP3 NG301  1  0.347450500075  0.078275472531
  CP3 NG311  1  0.347450500075  0.088756043175
  CP3 NG321  1  0.346559601357  0.102486650838
  CP3 NG331  1  0.345668702638  0.110698234855
  CP3 NG3C51  1  0.334087019303  0.187114168357
  CP3 NG3N1  1  0.351904993665  0.102486650838
  CP3 NG3P0  1  0.334087019303  0.187114168357
  CP3 NG3P1  1  0.334087019303  0.187114168357
  CP3 NG3P2  1  0.334087019303  0.187114168357
  CP3 NG3P3  1  0.334087019303  0.187114168357
  CP3 OG2D1  1  0.293996576986  0.144938011577
  CP3 OG2D2  1  0.320723538531  0.144938011577
  CP3 OG2D3  1  0.293996576986  0.144938011577
  CP3 OG2D4  1  0.320723538531  0.144938011577
  CP3 OG2D5  1  0.320010819556  0.169954883425
  CP3 OG2N1  1  0.320723538531  0.144938011577
  CP3 OG2P1  1  0.320723538531  0.144938011577
  CP3 OG2R50  1  0.320723538531  0.144938011577
  CP3 OG3R60  1  0.316269044940  0.132309697301
  CP3 OG301  1  0.316269044940  0.132309697301
  CP3 OG302  1  0.316269044940  0.132309697301
  CP3 OG303  1  0.316269044940  0.132309697301
  CP3 OG304  1  0.316269044940  0.132309697301
  CP3 OG311  1  0.326514380198  0.183381431383
  CP3 OG312  1  0.325178032121  0.144938011577
  CP3 OG3C31  1  0.316269044940  0.132309697301
  CP3 OG3C51  1  0.316269044940  0.132309697301
  CP3 OG3C61  1  0.316269044940  0.132309697301
  CP3 OGTIP3  1  0.326799467788  0.163176000000
  CP3 SG2D1  1  0.351904993665  0.314496560236
  CP3 SG2R50  1  0.347450500075  0.280671252536
  CP3 SG311  1  0.347450500075  0.280671252536
  CP3 SG301  1  0.345223253279  0.257919081884
  CP3 SG302  1  0.365268474438  0.286840588481
  CP3 SG3O1  1  0.356359487256  0.286840588481
  CP3 SG3O2  1  0.347450500075  0.247528778125
  CP3 SG3O3  1  0.347450500075  0.247528778125
  CP3  FGA1  1  0.314487247504  0.153729976257
  CP3  FGA2  1  0.314487247504  0.135577095411
  CP3  FGA3  1  0.311814551349  0.130309939452
  CP3  FGP1  1  0.311814551349  0.130309939452
  CP3  FGR1  1  0.320723538531  0.144938011577
  CP3 CLGA1  1  0.339432411611  0.245040988571
  CP3 CLGA3  1  0.339432411611  0.232955260941
  CP3 BRGA1  1  0.344777803920  0.289876023155
  CP3 BRGA2  1  0.351904993665  0.304599797767
  CP3 BRGA3  1  0.347450500075  0.307459952514
  CP3   SOD  1  0.294954293108  0.090610410351
  CP3   CLA  1  0.371504765465  0.162045623205
  CP3   PG0  1  0.360813980847  0.320014464673
  CP3   PG1  1  0.360813980847  0.320014464673
  CP3   PG2  1  0.360813980847  0.320014464673
  CP3  ALG1  1  0.347450500075  0.337324864189
  CP3   LPH  1  0.169270756447  0.000000000000
  CP3 CLGR1  1  0.334977918021  0.200657590935
  CP3 BRGR1  1  0.345668702638  0.236682781799
  CP3  IGR1  1  0.368832069310  0.301712530731
  CP3 SG2P1  1  0.355798221064  0.332305491450
  CP3 OG2S1  1  0.318906105146  0.157831660601
  CP3 SG2P2  1  0.352314807076  0.329421919951
  CP3 SEGD1  1  0.363041227642  0.330244580395
  CP3 BG201  1  0.396449929572  0.081561175077
  CP3 CC301  1  0.338541512893  0.041840000000
  CP3 CC3062  1  0.338541512893  0.041840000000
  CP3 CC311  1  0.338541512893  0.041840000000
  CP3 CC3161  1  0.338541512893  0.041840000000
  CP3 CC3162  1  0.338541512893  0.041840000000
  CP3 CC3163  1  0.338541512893  0.041840000000
  CP3 CC321  1  0.338541512893  0.041840000000
  CP3 CC3261  1  0.338541512893  0.041840000000
  CP3 CC3263  1  0.338541512893  0.041840000000
  CP3 CC331  1  0.338541512893  0.041840000000
  CP3 CC2O1  1  0.347450500075  0.138767581228
  CP3 CC2O2  1  0.347450500075  0.110698234855
  CP3 CC2O3  1  0.347450500075  0.125520000000
  CP3 CC2O4  1  0.329632525712  0.102486650838
  CP3 CC2O5  1  0.320723538531  0.130979917850
  CP3 OC2D1  1  0.293996576986  0.144938011577
  CP3 OC2D2  1  0.320723538531  0.144938011577
  CP3 OC2D3  1  0.293996576986  0.144938011577
  CP3 OC2D4  1  0.293996576986  0.144938011577
  CP3 OC3C61  1  0.316269044940  0.132309697301
  CP3 OC311  1  0.326514380198  0.183381431383
  CP3 NC2D1  1  0.307360057758  0.187114168357
  CP3  HCP1  1  0.189271432669  0.089736802707
  CP3  HCA1  1  0.288651184677  0.088756043175
  CP3  HCA2  1  0.288651184677  0.078275472531
  CP3  HCA3  1  0.288651184677  0.064818249282
  CP3 CC312  1  0.338541512893  0.041840000000
  CP3 CC322  1  0.338541512893  0.041840000000
  CP3  HCR1  1  0.240542653898  0.089736802707
  CP3 HCA3M  1  0.288651184677  0.064818249282
  CP3 CC321C  1  0.338541512893  0.041840000000
  CP3 CC321D  1  0.338541512893  0.041840000000
  CP3 CC311C  1  0.338541512893  0.041840000000
  CP3 CC311D  1  0.338541512893  0.041840000000
  CP3 OC301  1  0.316269044940  0.132309697301
  CP3 OC302  1  0.316269044940  0.132309697301
  CP3 HCP1M  1  0.189271432669  0.089736802707
  CP3 OC311M  1  0.326514380198  0.183381431383
  CP3 OC3C5M  1  0.316269044940  0.132309697301
  CP3 CC322C  1  0.338541512893  0.041840000000
  CP3 HCA2C2  1  0.285087589805  0.078275472531
  CP3 CC312C  1  0.338541512893  0.041840000000
  CP3 HCA1C2  1  0.288651184677  0.088756043175
  CP3 OC3C51  1  0.316269044940  0.132309697301
  CP3 CC3152  1  0.338541512893  0.041840000000
  CP3 CC3051  1  0.338541512893  0.041840000000
  CP3 CC3251  1  0.338541512893  0.041840000000
  CP3 CC3151  1  0.338541512893  0.041840000000
  CP3 CC3153  1  0.338541512893  0.041840000000
  CP3 OC2DP  1  0.320723538531  0.144938011577
  CP3 OC312  1  0.326959829558  0.163176000000
  CP3 OC30P  1  0.326959829558  0.163176000000
  CP3    PC  1  0.360813980847  0.320014464673
  CP3    SC  1  0.356359487256  0.286840588481
  CP3 CC312D  1  0.338541512893  0.041840000000
  CP3 OC303  1  0.316269044940  0.132309697301
  CP3 NC311  1  0.347450500075  0.088756043175
  CP3   HN1  1  0.189271432669  0.089736802707
  CP3   HN2  1  0.189271432669  0.089736802707
  CP3   HN3  1  0.267269615442  0.089736802707
  CP3   HN4  1  0.189271432669  0.089736802707
  CP3   HN5  1  0.189271432669  0.089736802707
  CP3   HN6  1  0.286869387241  0.062058748940
  CP3   HN7  1  0.286869387241  0.062058748940
  CP3   HN8  1  0.288651184677  0.070011711020
  CP3   HN9  1  0.288651184677  0.064818249282
  CP3   NN1  1  0.334087019303  0.187114168357
  CP3   NN2  1  0.334087019303  0.187114168357
  CP3  NN2B  1  0.334087019303  0.187114168357
  CP3  NN2G  1  0.334087019303  0.187114168357
  CP3  NN2U  1  0.334087019303  0.187114168357
  CP3   NN3  1  0.334087019303  0.187114168357
  CP3  NN3A  1  0.334087019303  0.187114168357
  CP3  NN3G  1  0.334087019303  0.187114168357
  CP3   NN4  1  0.334087019303  0.187114168357
  CP3   NN6  1  0.334087019303  0.187114168357
  CP3   ON1  1  0.320723538531  0.144938011577
  CP3  ON1C  1  0.320723538531  0.144938011577
  CP3   ON2  1  0.326959829558  0.163176000000
  CP3   ON3  1  0.320723538531  0.144938011577
  CP3   ON4  1  0.326959829558  0.163176000000
  CP3   ON5  1  0.326959829558  0.163176000000
  CP3   ON6  1  0.326959829558  0.163176000000
  CP3  ON6B  1  0.326959829558  0.163176000000
  CP3   CN1  1  0.338541512893  0.132309697301
  CP3  CN1T  1  0.338541512893  0.132309697301
  CP3   CN2  1  0.338541512893  0.132309697301
  CP3   CN3  1  0.338541512893  0.125520000000
  CP3  CN3T  1  0.338541512893  0.125520000000
  CP3   CN4  1  0.338541512893  0.114583559030
  CP3   CN5  1  0.338541512893  0.114583559030
  CP3  CN5G  1  0.338541512893  0.114583559030
  CP3   CN7  1  0.338541512893  0.041840000000
  CP3  CN7B  1  0.338541512893  0.041840000000
  CP3   CN8  1  0.338541512893  0.041840000000
  CP3  CN8B  1  0.338541512893  0.041840000000
  CP3   CN9  1  0.338541512893  0.041840000000
  CP3     P  1  0.360813980847  0.320014464673
  CP3    P2  1  0.360813980847  0.320014464673
  CP3    P3  1  0.360813980847  0.320014464673
  CP3    P4  1  0.360813980847  0.320014464673
  CP3   HOL  1  0.189271432669  0.089736802707
  CP3  HAL1  1  0.286869387241  0.062058748940
  CP3  HAL2  1  0.288651184677  0.070011711020
  CP3  HAL3  1  0.288651184677  0.064818249282
  CP3   HBL  1  0.286869387241  0.062058748940
  CP3   HCL  1  0.189271432669  0.089736802707
  CP3    HL  1  0.231633666716  0.089736802707
  CP3  HEL1  1  0.280633096214  0.073666921749
  CP3  HEL2  1  0.281523994932  0.067464972838
  CP3    CL  1  0.347450500075  0.110698234855
  CP3   CCL  1  0.347450500075  0.110698234855
  CP3  CTL1  1  0.338541512893  0.041840000000
  CP3  CTL2  1  0.338541512893  0.041840000000
  CP3  CTL3  1  0.338541512893  0.041840000000
  CP3  CTL5  1  0.338541512893  0.041840000000
  CP3  CEL1  1  0.355468588538  0.109105371453
  CP3  CEL2  1  0.354577689820  0.105847757841
  CP3  CRL1  1  0.338541512893  0.041840000000
  CP3  CRL2  1  0.338541512893  0.041840000000
  CP3   OBL  1  0.293996576986  0.144938011577
  CP3   OCL  1  0.320723538531  0.144938011577
  CP3   O2L  1  0.320723538531  0.144938011577
  CP3   OHL  1  0.326959829558  0.163176000000
  CP3   OSL  1  0.316269044940  0.132309697301
  CP3  OSLP  1  0.316269044940  0.132309697301
  CP3  NH3L  1  0.334087019303  0.187114168357
  CP3   NTL  1  0.334087019303  0.187114168357
  CP3    SL  1  0.356359487256  0.286840588481
  CP3    PL  1  0.360813980847  0.320014464673
  CP3 HCA1A  1  0.288651184677  0.088756043175
  CP3 HCA2A  1  0.288651184677  0.078275472531
  CP3 HCA3A  1  0.288651184677  0.064818249282
  CP3 CC30A  1  0.338541512893  0.041840000000
  CP3 CC31A  1  0.338541512893  0.041840000000
  CP3 CC32A  1  0.338541512893  0.041840000000
  CP3 CC33A  1  0.338541512893  0.041840000000
  CP3 CC326A  1  0.338541512893  0.041840000000
  CP3 HCA25A  1  0.285087589805  0.078275472531
  CP3 CC325A  1  0.338541512893  0.041840000000
  CP3 CC325B  1  0.338541512893  0.041840000000
  CP3 OC305A  1  0.316269044940  0.132309697301
  CP3 OC30A  1  0.316269044940  0.132309697301
  CP3  HSIO  1  0.189271432669  0.089736802707
  CP3  HSIA  1  0.286869387241  0.062058748940
  CP3   HAL  1  0.286869387241  0.062058748940
  CP3    AL  1  0.365268474438  0.337324864189
  CP3    SI  1  0.365268474438  0.324091246411
  CP3  SIH3  1  0.365268474438  0.324091246411
  CP3  OSIH  1  0.326959829558  0.163176000000
  CP3  OSIE  1  0.326959829558  0.163176000000
  CP3  OSIA  1  0.326959829558  0.163176000000
  CP3   OAL  1  0.326959829558  0.163176000000
  CP3    HT  1  0.189271432669  0.089736802707
  CP3    OT  1  0.326799467788  0.163176000000
  CP3   DUM  1  0.169270756447  0.000000000000
  CP3    CM  1  0.356359487256  0.138767581228
  CP3   CPA  1  0.329632525712  0.125520000000
  CP3   CPB  1  0.329632525712  0.125520000000
  CP3   CPM  1  0.329632525712  0.125520000000
  CP3   CST  1  0.308518226092  0.100764063435
  CP3  CT1X  1  0.338541512893  0.041840000000
  CP3  CT2X  1  0.338541512893  0.041840000000
  CP3  CT3X  1  0.338541512893  0.041840000000
  CP3    HB  1  0.286869387241  0.062058748940
  CP3   NPH  1  0.334087019303  0.187114168357
  CP3    OM  1  0.320723538531  0.144938011577
  CP3   OST  1  0.320010819556  0.169954883425
  CP3   POT  1  0.326403017859  0.123410269913
  CP3   CAL  1  0.291056611216  0.144938011577
  CP3    MG  1  0.274842254546  0.051243325419
  CP3   CES  1  0.356359487256  0.182376331798
  CP3    ZN  1  0.266378716724  0.209200000000
  CP3    FE  1  0.227179173126  0.000000000000
  CP3    HE  1  0.301123766731  0.061020452073
  CP3    NE  1  0.305578260322  0.122698965603
  CP3  CLAL  1  0.339272049842  0.072469005789
  CP3    AG  1  0.300901042052  0.893457908130
  CP3    AU  1  0.300722862308  0.962320000000
  CP3    CU  1  0.285800308779  0.908997471504
  CP3    NI  1  0.282949432881  0.994525446633
  CP3    PB  1  0.328073452955  0.716185437439
  CP3    PD  1  0.294842930769  1.037598257516
  CP3    PT  1  0.296001099102  1.168527606863
  CP3   CAP  1  0.346773417049  0.110698234855
  CP3    FA  1  0.320723538531  0.144938011577
  CP3    CN  1  0.325178032121  0.187114168357
  CP3    NC  1  0.334087019303  0.324091246411
  CP3   OCA  1  0.293996576986  0.144938011577
  CP3   COA  1  0.347450500075  0.138767581228
  CP3   CF1  1  0.338541512893  0.102486650838
  CP3   CF2  1  0.351904993665  0.085746484010
  CP3   CF3  1  0.374177461619  0.059170695450
  CP3   HF1  1  0.286869387241  0.070011711020
  CP3   HF2  1  0.285087589805  0.072469005789
  CP3    F1  1  0.314487247504  0.153729976257
  CP3    F2  1  0.314487247504  0.135577095411
  CP3    F3  1  0.311814551349  0.130309939452
  CP3    OX  1  0.320723538531  0.144938011577
  CP3    HX  1  0.189271432669  0.089736802707
  CP3  HPER  1  0.189271432669  0.089736802707
  CP3  OPER  1  0.318427692534  0.188901923946
  CP3   LIT  1  0.284864865125  0.020196198771
  CP3   RUB  1  0.338541512893  0.162045623205
  CP3   BAR  1  0.337650614175  0.162045623205
  CP3   CAD  1  0.290165712498  0.144938011577
  CP3  ON2B  1  0.326959829558  0.163176000000
  CP3    SP  1  0.365268474438  0.280671252536
  CP3   HNP  1  0.290272620344  0.072469005789
  CP3  HNE1  1  0.280633096214  0.073666921749
  CP3  HNE2  1  0.281523994932  0.067464972838
  CP3  CN3D  1  0.338541512893  0.125520000000
  CP3  CNE1  1  0.355468588538  0.109105371453
  CP3  CNE2  1  0.354577689820  0.105847757841
  CP3   CNA  1  0.346773417049  0.110698234855
  CP3  CNA2  1  0.338541512893  0.110698234855
  CP3   CNG  1  0.347450500075  0.138767581228
  CP3  NN1C  1  0.334087019303  0.187114168357
  CP3  NN2C  1  0.334087019303  0.187114168357
  CP3  NN3I  1  0.334087019303  0.187114168357
  CP3   NNG  1  0.334087019303  0.187114168357
  CP3   FNA  1  0.320723538531  0.144938011577
  CP3  ON2M  1  0.316269044940  0.132309697301
  CP3   CN6  1  0.338541512893  0.041840000000
  CP3  CN7E  1  0.338541512893  0.041840000000
  CP3  CT2P  1  0.338541512893  0.041840000000
  CP3  CTD1  1  0.338541512893  0.041840000000
  CP3  CPD1  1  0.338541512893  0.041840000000
  CP3  CC1A  1  0.355468588538  0.109105371453
  CP3  CC1B  1  0.355468588538  0.109105371453
  CP3   CC2  1  0.354577689820  0.105847757841
  CP3   NS1  1  0.334087019303  0.187114168357
  CP3   NS2  1  0.334087019303  0.187114168357
  CP3   NHL  1  0.307360057758  0.187114168357
  CP3  CTO1  1  0.338541512893  0.041840000000
  CP3  CEL3  1  0.355468588538  0.109105371453
  CP3  CTO2  1  0.338541512893  0.041840000000
  CP3  HN3B  1  0.249451641079  0.089736802707
  CP3  CN1A  1  0.347450500075  0.110698234855
  CP3  CN3A  1  0.329632525712  0.177512086349
  CP3  CN3B  1  0.329632525712  0.177512086349
  CP3  CN3C  1  0.329632525712  0.177512086349
   CT     C  1  0.347450500075  0.138767581228
   CT    CA  1  0.346773417049  0.110698234855
   CT    CC  1  0.347450500075  0.110698234855
   CT    CD  1  0.347450500075  0.110698234855
   CT   CE1  1  0.355468588538  0.109105371453
   CT   CE2  1  0.354577689820  0.105847757841
   CT   CP1  1  0.338541512893  0.041840000000
   CT   CP2  1  0.338541512893  0.041840000000
   CT   CP3  1  0.338541512893  0.041840000000
   CT  CPH1  1  0.329632525712  0.093557084179
   CT  CPH2  1  0.329632525712  0.093557084179
   CT    CS  1  0.365268474438  0.138767581228
   CT   CPT  1  0.334977918021  0.131646486622
   CT    CY  1  0.346559601357  0.113045454929
   CT   CAI  1  0.346559601357  0.113045454929
   CT    CT  1  0.338541512893  0.041840000000
   CT   CT1  1  0.338541512893  0.041840000000
   CT   CT2  1  0.338541512893  0.041840000000
   CT  CT2A  1  0.338541512893  0.041840000000
   CT   CT3  1  0.338541512893  0.041840000000
   CT    C3  1  0.371950214824  0.059170695450
   CT     H  1  0.189271432669  0.089736802707
   CT    HA  1  0.286869387241  0.062058748940
   CT   HB1  1  0.286869387241  0.062058748940
   CT   HB2  1  0.288651184677  0.070011711020
   CT   HE1  1  0.280633096214  0.073666921749
   CT   HE2  1  0.281523994932  0.067464972838
   CT    HC  1  0.189271432669  0.089736802707
   CT    HP  1  0.290272620344  0.072469005789
   CT   HR1  1  0.249451641079  0.089736802707
   CT   HR2  1  0.231633666716  0.089736802707
   CT   HR3  1  0.300054688270  0.036952087465
   CT    HS  1  0.209361198763  0.132309697301
   CT   HA1  1  0.288651184677  0.088756043175
   CT   HA2  1  0.288651184677  0.077149148019
   CT   HA3  1  0.288651184677  0.064818249282
   CT     N  1  0.334087019303  0.004184000000
   CT   NC2  1  0.334087019303  0.187114168357
   CT   NH1  1  0.307360057758  0.187114168357
   CT   NH2  1  0.334087019303  0.187114168357
   CT   NH3  1  0.334087019303  0.187114168357
   CT    NP  1  0.334087019303  0.187114168357
   CT   NR1  1  0.334087019303  0.187114168357
   CT   NR2  1  0.334087019303  0.187114168357
   CT   NR3  1  0.334087019303  0.187114168357
   CT    NY  1  0.334087019303  0.187114168357
   CT     O  1  0.293996576986  0.144938011577
   CT    OB  1  0.293996576986  0.144938011577
   CT    OC  1  0.320723538531  0.144938011577
   CT   OH1  1  0.326959829558  0.163176000000
   CT    OS  1  0.326959829558  0.163176000000
   CT     S  1  0.347450500075  0.280671252536
   CT    SM  1  0.345223253279  0.257919081884
   CT    SS  1  0.365268474438  0.286840588481
   CT  HGA1  1  0.288651184677  0.088756043175
   CT  HGA2  1  0.288651184677  0.078275472531
   CT  HGA3  1  0.288651184677  0.064818249282
   CT  HGA4  1  0.280633096214  0.073666921749
   CT  HGA5  1  0.281523994932  0.067464972838
   CT  HGA6  1  0.286869387241  0.070011711020
   CT  HGA7  1  0.285087589805  0.072469005789
   CT HGAAM0  1  0.283305792369  0.070011711020
   CT HGAAM1  1  0.283305792369  0.070011711020
   CT HGAAM2  1  0.281523994932  0.083680000000
   CT  HGP1  1  0.189271432669  0.089736802707
   CT  HGP2  1  0.189271432669  0.089736802707
   CT  HGP3  1  0.209361198763  0.132309697301
   CT  HGP4  1  0.189271432669  0.089736802707
   CT  HGP5  1  0.231633666716  0.089736802707
   CT HGPAM1  1  0.247224394284  0.039692909190
   CT HGPAM2  1  0.247224394284  0.041840000000
   CT HGPAM3  1  0.246778944925  0.045833423612
   CT HGR51  1  0.290272620344  0.072469005789
   CT HGR52  1  0.249451641079  0.089736802707
   CT HGR53  1  0.231633666716  0.089736802707
   CT HGR61  1  0.290272620344  0.072469005789
   CT HGR62  1  0.267269615442  0.089736802707
   CT HGR63  1  0.249451641079  0.089736802707
   CT HGR71  1  0.290272620344  0.072469005789
   CT HGTIP3  1  0.189271432669  0.089736802707
   CT CG1T1  1  0.333196120584  0.170981810495
   CT CG1T2  1  0.346782326036  0.134409982486
   CT CG1N1  1  0.335868816739  0.177512086349
   CT CG2D1  1  0.355468588538  0.109105371453
   CT CG2D2  1  0.354577689820  0.105847757841
   CT CG2D1O  1  0.355468588538  0.109105371453
   CT CG2D2O  1  0.355468588538  0.109105371453
   CT CG2DC1  1  0.355468588538  0.109105371453
   CT CG2DC2  1  0.355468588538  0.109105371453
   CT CG2DC3  1  0.354577689820  0.105847757841
   CT CG2N1  1  0.347450500075  0.138767581228
   CT CG2N2  1  0.347450500075  0.138767581228
   CT CG2O1  1  0.347450500075  0.138767581228
   CT CG2O2  1  0.320723538531  0.130979917850
   CT CG2O3  1  0.347450500075  0.110698234855
   CT CG2O4  1  0.329632525712  0.102486650838
   CT CG2O5  1  0.347450500075  0.125520000000
   CT CG2O6  1  0.347450500075  0.110698234855
   CT CG2O7  1  0.308518226092  0.100764063435
   CT CG2R51  1  0.356359487256  0.093557084179
   CT CG2R52  1  0.365268474438  0.059170695450
   CT CG2R53  1  0.365268474438  0.059170695450
   CT CG2R57  1  0.356359487256  0.093557084179
   CT CG25C1  1  0.355468588538  0.109105371453
   CT CG25C2  1  0.355468588538  0.109105371453
   CT CG251O  1  0.355468588538  0.109105371453
   CT CG252O  1  0.355468588538  0.109105371453
   CT CG2R61  1  0.346773417049  0.110698234855
   CT CG2R62  1  0.338541512893  0.125520000000
   CT CG2R63  1  0.338541512893  0.132309697301
   CT CG2R64  1  0.356359487256  0.083680000000
   CT CG2R66  1  0.338541512893  0.110698234855
   CT CG2R67  1  0.346773417049  0.110698234855
   CT CG2RC0  1  0.334977918021  0.131646486622
   CT CG2R71  1  0.346987232741  0.108300154755
   CT CG2RC7  1  0.334977918021  0.131646486622
   CT CG301  1  0.338541512893  0.041840000000
   CT CG302  1  0.374177461619  0.059170695450
   CT CG311  1  0.338541512893  0.041840000000
   CT CG312  1  0.351904993665  0.085746484010
   CT CG314  1  0.338541512893  0.041840000000
   CT CG321  1  0.338541512893  0.041840000000
   CT CG322  1  0.338541512893  0.102486650838
   CT CG323  1  0.365268474438  0.138767581228
   CT CG324  1  0.338541512893  0.041840000000
   CT CG331  1  0.338541512893  0.041840000000
   CT CG334  1  0.338541512893  0.041840000000
   CT CG3C50  1  0.338541512893  0.041840000000
   CT CG3C51  1  0.338541512893  0.041840000000
   CT CG3C52  1  0.338541512893  0.041840000000
   CT CG3C53  1  0.338541512893  0.041840000000
   CT CG3C54  1  0.338541512893  0.041840000000
   CT CG3C31  1  0.338541512893  0.041840000000
   CT CG3C41  1  0.338541512893  0.041840000000
   CT CG3RC1  1  0.338541512893  0.041840000000
   CT CG3AM0  1  0.344777803920  0.110698234855
   CT CG3AM1  1  0.345668702638  0.116852760686
   CT CG3AM2  1  0.346559601357  0.118341390899
   CT NG1T1  1  0.328741626994  0.177512086349
   CT NG2D1  1  0.334087019303  0.187114168357
   CT NG2S0  1  0.334087019303  0.004184000000
   CT NG2S1  1  0.307360057758  0.187114168357
   CT NG2S2  1  0.334087019303  0.187114168357
   CT NG2S3  1  0.334087019303  0.187114168357
   CT NG2O1  1  0.334087019303  0.187114168357
   CT NG2P1  1  0.334087019303  0.187114168357
   CT NG2R43  1  0.334087019303  0.187114168357
   CT NG2R50  1  0.334087019303  0.187114168357
   CT NG2R51  1  0.334087019303  0.187114168357
   CT NG2R52  1  0.334087019303  0.187114168357
   CT NG2R53  1  0.334087019303  0.187114168357
   CT NG2R57  1  0.334087019303  0.187114168357
   CT NG2R60  1  0.337650614175  0.102486650838
   CT NG2R61  1  0.334087019303  0.187114168357
   CT NG2R62  1  0.352795892384  0.093557084179
   CT NG2R67  1  0.334087019303  0.187114168357
   CT NG2RC0  1  0.334087019303  0.187114168357
   CT NG301  1  0.347450500075  0.078275472531
   CT NG311  1  0.347450500075  0.088756043175
   CT NG321  1  0.346559601357  0.102486650838
   CT NG331  1  0.345668702638  0.110698234855
   CT NG3C51  1  0.334087019303  0.187114168357
   CT NG3N1  1  0.351904993665  0.102486650838
   CT NG3P0  1  0.334087019303  0.187114168357
   CT NG3P1  1  0.334087019303  0.187114168357
   CT NG3P2  1  0.334087019303  0.187114168357
   CT NG3P3  1  0.334087019303  0.187114168357
   CT OG2D1  1  0.293996576986  0.144938011577
   CT OG2D2  1  0.320723538531  0.144938011577
   CT OG2D3  1  0.293996576986  0.144938011577
   CT OG2D4  1  0.320723538531  0.144938011577
   CT OG2D5  1  0.320010819556  0.169954883425
   CT OG2N1  1  0.320723538531  0.144938011577
   CT OG2P1  1  0.320723538531  0.144938011577
   CT OG2R50  1  0.320723538531  0.144938011577
   CT OG3R60  1  0.316269044940  0.132309697301
   CT OG301  1  0.316269044940  0.132309697301
   CT OG302  1  0.316269044940  0.132309697301
   CT OG303  1  0.316269044940  0.132309697301
   CT OG304  1  0.316269044940  0.132309697301
   CT OG311  1  0.326514380198  0.183381431383
   CT OG312  1  0.325178032121  0.144938011577
   CT OG3C31  1  0.316269044940  0.132309697301
   CT OG3C51  1  0.316269044940  0.132309697301
   CT OG3C61  1  0.316269044940  0.132309697301
   CT OGTIP3  1  0.326799467788  0.163176000000
   CT SG2D1  1  0.351904993665  0.314496560236
   CT SG2R50  1  0.347450500075  0.280671252536
   CT SG311  1  0.347450500075  0.280671252536
   CT SG301  1  0.345223253279  0.257919081884
   CT SG302  1  0.365268474438  0.286840588481
   CT SG3O1  1  0.356359487256  0.286840588481
   CT SG3O2  1  0.347450500075  0.247528778125
   CT SG3O3  1  0.347450500075  0.247528778125
   CT  FGA1  1  0.314487247504  0.153729976257
   CT  FGA2  1  0.314487247504  0.135577095411
   CT  FGA3  1  0.311814551349  0.130309939452
   CT  FGP1  1  0.311814551349  0.130309939452
   CT  FGR1  1  0.320723538531  0.144938011577
   CT CLGA1  1  0.339432411611  0.245040988571
   CT CLGA3  1  0.339432411611  0.232955260941
   CT BRGA1  1  0.344777803920  0.289876023155
   CT BRGA2  1  0.351904993665  0.304599797767
   CT BRGA3  1  0.347450500075  0.307459952514
   CT   SOD  1  0.294954293108  0.090610410351
   CT   CLA  1  0.371504765465  0.162045623205
   CT   PG0  1  0.360813980847  0.320014464673
   CT   PG1  1  0.360813980847  0.320014464673
   CT   PG2  1  0.360813980847  0.320014464673
   CT  ALG1  1  0.347450500075  0.337324864189
   CT   LPH  1  0.169270756447  0.000000000000
   CT CLGR1  1  0.334977918021  0.200657590935
   CT BRGR1  1  0.345668702638  0.236682781799
   CT  IGR1  1  0.368832069310  0.301712530731
   CT SG2P1  1  0.355798221064  0.332305491450
   CT OG2S1  1  0.318906105146  0.157831660601
   CT SG2P2  1  0.352314807076  0.329421919951
   CT SEGD1  1  0.363041227642  0.330244580395
   CT BG201  1  0.396449929572  0.081561175077
   CT CC301  1  0.338541512893  0.041840000000
   CT CC3062  1  0.338541512893  0.041840000000
   CT CC311  1  0.338541512893  0.041840000000
   CT CC3161  1  0.338541512893  0.041840000000
   CT CC3162  1  0.338541512893  0.041840000000
   CT CC3163  1  0.338541512893  0.041840000000
   CT CC321  1  0.338541512893  0.041840000000
   CT CC3261  1  0.338541512893  0.041840000000
   CT CC3263  1  0.338541512893  0.041840000000
   CT CC331  1  0.338541512893  0.041840000000
   CT CC2O1  1  0.347450500075  0.138767581228
   CT CC2O2  1  0.347450500075  0.110698234855
   CT CC2O3  1  0.347450500075  0.125520000000
   CT CC2O4  1  0.329632525712  0.102486650838
   CT CC2O5  1  0.320723538531  0.130979917850
   CT OC2D1  1  0.293996576986  0.144938011577
   CT OC2D2  1  0.320723538531  0.144938011577
   CT OC2D3  1  0.293996576986  0.144938011577
   CT OC2D4  1  0.293996576986  0.144938011577
   CT OC3C61  1  0.316269044940  0.132309697301
   CT OC311  1  0.326514380198  0.183381431383
   CT NC2D1  1  0.307360057758  0.187114168357
   CT  HCP1  1  0.189271432669  0.089736802707
   CT  HCA1  1  0.288651184677  0.088756043175
   CT  HCA2  1  0.288651184677  0.078275472531
   CT  HCA3  1  0.288651184677  0.064818249282
   CT CC312  1  0.338541512893  0.041840000000
   CT CC322  1  0.338541512893  0.041840000000
   CT  HCR1  1  0.240542653898  0.089736802707
   CT HCA3M  1  0.288651184677  0.064818249282
   CT CC321C  1  0.338541512893  0.041840000000
   CT CC321D  1  0.338541512893  0.041840000000
   CT CC311C  1  0.338541512893  0.041840000000
   CT CC311D  1  0.338541512893  0.041840000000
   CT OC301  1  0.316269044940  0.132309697301
   CT OC302  1  0.316269044940  0.132309697301
   CT HCP1M  1  0.189271432669  0.089736802707
   CT OC311M  1  0.326514380198  0.183381431383
   CT OC3C5M  1  0.316269044940  0.132309697301
   CT CC322C  1  0.338541512893  0.041840000000
   CT HCA2C2  1  0.285087589805  0.078275472531
   CT CC312C  1  0.338541512893  0.041840000000
   CT HCA1C2  1  0.288651184677  0.088756043175
   CT OC3C51  1  0.316269044940  0.132309697301
   CT CC3152  1  0.338541512893  0.041840000000
   CT CC3051  1  0.338541512893  0.041840000000
   CT CC3251  1  0.338541512893  0.041840000000
   CT CC3151  1  0.338541512893  0.041840000000
   CT CC3153  1  0.338541512893  0.041840000000
   CT OC2DP  1  0.320723538531  0.144938011577
   CT OC312  1  0.326959829558  0.163176000000
   CT OC30P  1  0.326959829558  0.163176000000
   CT    PC  1  0.360813980847  0.320014464673
   CT    SC  1  0.356359487256  0.286840588481
   CT CC312D  1  0.338541512893  0.041840000000
   CT OC303  1  0.316269044940  0.132309697301
   CT NC311  1  0.347450500075  0.088756043175
   CT   HN1  1  0.189271432669  0.089736802707
   CT   HN2  1  0.189271432669  0.089736802707
   CT   HN3  1  0.267269615442  0.089736802707
   CT   HN4  1  0.189271432669  0.089736802707
   CT   HN5  1  0.189271432669  0.089736802707
   CT   HN6  1  0.286869387241  0.062058748940
   CT   HN7  1  0.286869387241  0.062058748940
   CT   HN8  1  0.288651184677  0.070011711020
   CT   HN9  1  0.288651184677  0.064818249282
   CT   NN1  1  0.334087019303  0.187114168357
   CT   NN2  1  0.334087019303  0.187114168357
   CT  NN2B  1  0.334087019303  0.187114168357
   CT  NN2G  1  0.334087019303  0.187114168357
   CT  NN2U  1  0.334087019303  0.187114168357
   CT   NN3  1  0.334087019303  0.187114168357
   CT  NN3A  1  0.334087019303  0.187114168357
   CT  NN3G  1  0.334087019303  0.187114168357
   CT   NN4  1  0.334087019303  0.187114168357
   CT   NN6  1  0.334087019303  0.187114168357
   CT   ON1  1  0.320723538531  0.144938011577
   CT  ON1C  1  0.320723538531  0.144938011577
   CT   ON2  1  0.326959829558  0.163176000000
   CT   ON3  1  0.320723538531  0.144938011577
   CT   ON4  1  0.326959829558  0.163176000000
   CT   ON5  1  0.326959829558  0.163176000000
   CT   ON6  1  0.326959829558  0.163176000000
   CT  ON6B  1  0.326959829558  0.163176000000
   CT   CN1  1  0.338541512893  0.132309697301
   CT  CN1T  1  0.338541512893  0.132309697301
   CT   CN2  1  0.338541512893  0.132309697301
   CT   CN3  1  0.338541512893  0.125520000000
   CT  CN3T  1  0.338541512893  0.125520000000
   CT   CN4  1  0.338541512893  0.114583559030
   CT   CN5  1  0.338541512893  0.114583559030
   CT  CN5G  1  0.338541512893  0.114583559030
   CT   CN7  1  0.338541512893  0.041840000000
   CT  CN7B  1  0.338541512893  0.041840000000
   CT   CN8  1  0.338541512893  0.041840000000
   CT  CN8B  1  0.338541512893  0.041840000000
   CT   CN9  1  0.338541512893  0.041840000000
   CT     P  1  0.360813980847  0.320014464673
   CT    P2  1  0.360813980847  0.320014464673
   CT    P3  1  0.360813980847  0.320014464673
   CT    P4  1  0.360813980847  0.320014464673
   CT   HOL  1  0.189271432669  0.089736802707
   CT  HAL1  1  0.286869387241  0.062058748940
   CT  HAL2  1  0.288651184677  0.070011711020
   CT  HAL3  1  0.288651184677  0.064818249282
   CT   HBL  1  0.286869387241  0.062058748940
   CT   HCL  1  0.189271432669  0.089736802707
   CT    HL  1  0.231633666716  0.089736802707
   CT  HEL1  1  0.280633096214  0.073666921749
   CT  HEL2  1  0.281523994932  0.067464972838
   CT    CL  1  0.347450500075  0.110698234855
   CT   CCL  1  0.347450500075  0.110698234855
   CT  CTL1  1  0.338541512893  0.041840000000
   CT  CTL2  1  0.338541512893  0.041840000000
   CT  CTL3  1  0.338541512893  0.041840000000
   CT  CTL5  1  0.338541512893  0.041840000000
   CT  CEL1  1  0.355468588538  0.109105371453
   CT  CEL2  1  0.354577689820  0.105847757841
   CT  CRL1  1  0.338541512893  0.041840000000
   CT  CRL2  1  0.338541512893  0.041840000000
   CT   OBL  1  0.293996576986  0.144938011577
   CT   OCL  1  0.320723538531  0.144938011577
   CT   O2L  1  0.320723538531  0.144938011577
   CT   OHL  1  0.326959829558  0.163176000000
   CT   OSL  1  0.316269044940  0.132309697301
   CT  OSLP  1  0.316269044940  0.132309697301
   CT  NH3L  1  0.334087019303  0.187114168357
   CT   NTL  1  0.334087019303  0.187114168357
   CT    SL  1  0.356359487256  0.286840588481
   CT    PL  1  0.360813980847  0.320014464673
   CT HCA1A  1  0.288651184677  0.088756043175
   CT HCA2A  1  0.288651184677  0.078275472531
   CT HCA3A  1  0.288651184677  0.064818249282
   CT CC30A  1  0.338541512893  0.041840000000
   CT CC31A  1  0.338541512893  0.041840000000
   CT CC32A  1  0.338541512893  0.041840000000
   CT CC33A  1  0.338541512893  0.041840000000
   CT CC326A  1  0.338541512893  0.041840000000
   CT HCA25A  1  0.285087589805  0.078275472531
   CT CC325A  1  0.338541512893  0.041840000000
   CT CC325B  1  0.338541512893  0.041840000000
   CT OC305A  1  0.316269044940  0.132309697301
   CT OC30A  1  0.316269044940  0.132309697301
   CT  HSIO  1  0.189271432669  0.089736802707
   CT  HSIA  1  0.286869387241  0.062058748940
   CT   HAL  1  0.286869387241  0.062058748940
   CT    AL  1  0.365268474438  0.337324864189
   CT    SI  1  0.365268474438  0.324091246411
   CT  SIH3  1  0.365268474438  0.324091246411
   CT  OSIH  1  0.326959829558  0.163176000000
   CT  OSIE  1  0.326959829558  0.163176000000
   CT  OSIA  1  0.326959829558  0.163176000000
   CT   OAL  1  0.326959829558  0.163176000000
   CT    HT  1  0.189271432669  0.089736802707
   CT    OT  1  0.326799467788  0.163176000000
   CT   DUM  1  0.169270756447  0.000000000000
   CT    CM  1  0.356359487256  0.138767581228
   CT   CPA  1  0.329632525712  0.125520000000
   CT   CPB  1  0.329632525712  0.125520000000
   CT   CPM  1  0.329632525712  0.125520000000
   CT   CST  1  0.308518226092  0.100764063435
   CT  CT1X  1  0.338541512893  0.041840000000
   CT  CT2X  1  0.338541512893  0.041840000000
   CT  CT3X  1  0.338541512893  0.041840000000
   CT    HB  1  0.286869387241  0.062058748940
   CT   NPH  1  0.334087019303  0.187114168357
   CT    OM  1  0.320723538531  0.144938011577
   CT   OST  1  0.320010819556  0.169954883425
   CT   POT  1  0.326403017859  0.123410269913
   CT   CAL  1  0.291056611216  0.144938011577
   CT    MG  1  0.274842254546  0.051243325419
   CT   CES  1  0.356359487256  0.182376331798
   CT    ZN  1  0.266378716724  0.209200000000
   CT    FE  1  0.227179173126  0.000000000000
   CT    HE  1  0.301123766731  0.061020452073
   CT    NE  1  0.305578260322  0.122698965603
   CT  CLAL  1  0.339272049842  0.072469005789
   CT    AG  1  0.300901042052  0.893457908130
   CT    AU  1  0.300722862308  0.962320000000
   CT    CU  1  0.285800308779  0.908997471504
   CT    NI  1  0.282949432881  0.994525446633
   CT    PB  1  0.328073452955  0.716185437439
   CT    PD  1  0.294842930769  1.037598257516
   CT    PT  1  0.296001099102  1.168527606863
   CT   CAP  1  0.346773417049  0.110698234855
   CT    FA  1  0.320723538531  0.144938011577
   CT    CN  1  0.325178032121  0.187114168357
   CT    NC  1  0.334087019303  0.324091246411
   CT   OCA  1  0.293996576986  0.144938011577
   CT   COA  1  0.347450500075  0.138767581228
   CT   CF1  1  0.338541512893  0.102486650838
   CT   CF2  1  0.351904993665  0.085746484010
   CT   CF3  1  0.374177461619  0.059170695450
   CT   HF1  1  0.286869387241  0.070011711020
   CT   HF2  1  0.285087589805  0.072469005789
   CT    F1  1  0.314487247504  0.153729976257
   CT    F2  1  0.314487247504  0.135577095411
   CT    F3  1  0.311814551349  0.130309939452
   CT    OX  1  0.320723538531  0.144938011577
   CT    HX  1  0.189271432669  0.089736802707
   CT  HPER  1  0.189271432669  0.089736802707
   CT  OPER  1  0.318427692534  0.188901923946
   CT   LIT  1  0.284864865125  0.020196198771
   CT   RUB  1  0.338541512893  0.162045623205
   CT   BAR  1  0.337650614175  0.162045623205
   CT   CAD  1  0.290165712498  0.144938011577
   CT  ON2B  1  0.326959829558  0.163176000000
   CT    SP  1  0.365268474438  0.280671252536
   CT   HNP  1  0.290272620344  0.072469005789
   CT  HNE1  1  0.280633096214  0.073666921749
   CT  HNE2  1  0.281523994932  0.067464972838
   CT  CN3D  1  0.338541512893  0.125520000000
   CT  CNE1  1  0.355468588538  0.109105371453
   CT  CNE2  1  0.354577689820  0.105847757841
   CT   CNA  1  0.346773417049  0.110698234855
   CT  CNA2  1  0.338541512893  0.110698234855
   CT   CNG  1  0.347450500075  0.138767581228
   CT  NN1C  1  0.334087019303  0.187114168357
   CT  NN2C  1  0.334087019303  0.187114168357
   CT  NN3I  1  0.334087019303  0.187114168357
   CT   NNG  1  0.334087019303  0.187114168357
   CT   FNA  1  0.320723538531  0.144938011577
   CT  ON2M  1  0.316269044940  0.132309697301
   CT   CN6  1  0.338541512893  0.041840000000
   CT  CN7E  1  0.338541512893  0.041840000000
   CT  CT2P  1  0.338541512893  0.041840000000
   CT  CTD1  1  0.338541512893  0.041840000000
   CT  CPD1  1  0.338541512893  0.041840000000
   CT  CC1A  1  0.355468588538  0.109105371453
   CT  CC1B  1  0.355468588538  0.109105371453
   CT   CC2  1  0.354577689820  0.105847757841
   CT   NS1  1  0.334087019303  0.187114168357
   CT   NS2  1  0.334087019303  0.187114168357
   CT   NHL  1  0.307360057758  0.187114168357
   CT  CTO1  1  0.338541512893  0.041840000000
   CT  CEL3  1  0.355468588538  0.109105371453
   CT  CTO2  1  0.338541512893  0.041840000000
   CT  HN3B  1  0.249451641079  0.089736802707
   CT  CN1A  1  0.347450500075  0.110698234855
   CT  CN3A  1  0.329632525712  0.177512086349
   CT  CN3B  1  0.329632525712  0.177512086349
   CT  CN3C  1  0.329632525712  0.177512086349
  CT1     C  1  0.347450500075  0.138767581228
  CT1    CA  1  0.346773417049  0.110698234855
  CT1    CC  1  0.347450500075  0.110698234855
  CT1    CD  1  0.347450500075  0.110698234855
  CT1   CE1  1  0.355468588538  0.109105371453
  CT1   CE2  1  0.354577689820  0.105847757841
  CT1   CP1  1  0.338541512893  0.041840000000
  CT1   CP2  1  0.338541512893  0.041840000000
  CT1   CP3  1  0.338541512893  0.041840000000
  CT1  CPH1  1  0.329632525712  0.093557084179
  CT1  CPH2  1  0.329632525712  0.093557084179
  CT1    CS  1  0.365268474438  0.138767581228
  CT1   CPT  1  0.334977918021  0.131646486622
  CT1    CY  1  0.346559601357  0.113045454929
  CT1   CAI  1  0.346559601357  0.113045454929
  CT1    CT  1  0.338541512893  0.041840000000
  CT1   CT1  1  0.338541512893  0.041840000000
  CT1   CT2  1  0.338541512893  0.041840000000
  CT1  CT2A  1  0.338541512893  0.041840000000
  CT1   CT3  1  0.338541512893  0.041840000000
  CT1    C3  1  0.371950214824  0.059170695450
  CT1     H  1  0.189271432669  0.089736802707
  CT1    HA  1  0.286869387241  0.062058748940
  CT1   HB1  1  0.286869387241  0.062058748940
  CT1   HB2  1  0.288651184677  0.070011711020
  CT1   HE1  1  0.280633096214  0.073666921749
  CT1   HE2  1  0.281523994932  0.067464972838
  CT1    HC  1  0.189271432669  0.089736802707
  CT1    HP  1  0.290272620344  0.072469005789
  CT1   HR1  1  0.249451641079  0.089736802707
  CT1   HR2  1  0.231633666716  0.089736802707
  CT1   HR3  1  0.300054688270  0.036952087465
  CT1    HS  1  0.209361198763  0.132309697301
  CT1   HA1  1  0.288651184677  0.088756043175
  CT1   HA2  1  0.288651184677  0.077149148019
  CT1   HA3  1  0.288651184677  0.064818249282
  CT1     N  1  0.334087019303  0.004184000000
  CT1   NC2  1  0.334087019303  0.187114168357
  CT1   NH1  1  0.307360057758  0.187114168357
  CT1   NH2  1  0.334087019303  0.187114168357
  CT1   NH3  1  0.334087019303  0.187114168357
  CT1    NP  1  0.334087019303  0.187114168357
  CT1   NR1  1  0.334087019303  0.187114168357
  CT1   NR2  1  0.334087019303  0.187114168357
  CT1   NR3  1  0.334087019303  0.187114168357
  CT1    NY  1  0.334087019303  0.187114168357
  CT1     O  1  0.293996576986  0.144938011577
  CT1    OB  1  0.293996576986  0.144938011577
  CT1    OC  1  0.320723538531  0.144938011577
  CT1   OH1  1  0.326959829558  0.163176000000
  CT1    OS  1  0.326959829558  0.163176000000
  CT1     S  1  0.347450500075  0.280671252536
  CT1    SM  1  0.345223253279  0.257919081884
  CT1    SS  1  0.365268474438  0.286840588481
  CT1  HGA1  1  0.288651184677  0.088756043175
  CT1  HGA2  1  0.288651184677  0.078275472531
  CT1  HGA3  1  0.288651184677  0.064818249282
  CT1  HGA4  1  0.280633096214  0.073666921749
  CT1  HGA5  1  0.281523994932  0.067464972838
  CT1  HGA6  1  0.286869387241  0.070011711020
  CT1  HGA7  1  0.285087589805  0.072469005789
  CT1 HGAAM0  1  0.283305792369  0.070011711020
  CT1 HGAAM1  1  0.283305792369  0.070011711020
  CT1 HGAAM2  1  0.281523994932  0.083680000000
  CT1  HGP1  1  0.189271432669  0.089736802707
  CT1  HGP2  1  0.189271432669  0.089736802707
  CT1  HGP3  1  0.209361198763  0.132309697301
  CT1  HGP4  1  0.189271432669  0.089736802707
  CT1  HGP5  1  0.231633666716  0.089736802707
  CT1 HGPAM1  1  0.247224394284  0.039692909190
  CT1 HGPAM2  1  0.247224394284  0.041840000000
  CT1 HGPAM3  1  0.246778944925  0.045833423612
  CT1 HGR51  1  0.290272620344  0.072469005789
  CT1 HGR52  1  0.249451641079  0.089736802707
  CT1 HGR53  1  0.231633666716  0.089736802707
  CT1 HGR61  1  0.290272620344  0.072469005789
  CT1 HGR62  1  0.267269615442  0.089736802707
  CT1 HGR63  1  0.249451641079  0.089736802707
  CT1 HGR71  1  0.290272620344  0.072469005789
  CT1 HGTIP3  1  0.189271432669  0.089736802707
  CT1 CG1T1  1  0.333196120584  0.170981810495
  CT1 CG1T2  1  0.346782326036  0.134409982486
  CT1 CG1N1  1  0.335868816739  0.177512086349
  CT1 CG2D1  1  0.355468588538  0.109105371453
  CT1 CG2D2  1  0.354577689820  0.105847757841
  CT1 CG2D1O  1  0.355468588538  0.109105371453
  CT1 CG2D2O  1  0.355468588538  0.109105371453
  CT1 CG2DC1  1  0.355468588538  0.109105371453
  CT1 CG2DC2  1  0.355468588538  0.109105371453
  CT1 CG2DC3  1  0.354577689820  0.105847757841
  CT1 CG2N1  1  0.347450500075  0.138767581228
  CT1 CG2N2  1  0.347450500075  0.138767581228
  CT1 CG2O1  1  0.347450500075  0.138767581228
  CT1 CG2O2  1  0.320723538531  0.130979917850
  CT1 CG2O3  1  0.347450500075  0.110698234855
  CT1 CG2O4  1  0.329632525712  0.102486650838
  CT1 CG2O5  1  0.347450500075  0.125520000000
  CT1 CG2O6  1  0.347450500075  0.110698234855
  CT1 CG2O7  1  0.308518226092  0.100764063435
  CT1 CG2R51  1  0.356359487256  0.093557084179
  CT1 CG2R52  1  0.365268474438  0.059170695450
  CT1 CG2R53  1  0.365268474438  0.059170695450
  CT1 CG2R57  1  0.356359487256  0.093557084179
  CT1 CG25C1  1  0.355468588538  0.109105371453
  CT1 CG25C2  1  0.355468588538  0.109105371453
  CT1 CG251O  1  0.355468588538  0.109105371453
  CT1 CG252O  1  0.355468588538  0.109105371453
  CT1 CG2R61  1  0.346773417049  0.110698234855
  CT1 CG2R62  1  0.338541512893  0.125520000000
  CT1 CG2R63  1  0.338541512893  0.132309697301
  CT1 CG2R64  1  0.356359487256  0.083680000000
  CT1 CG2R66  1  0.338541512893  0.110698234855
  CT1 CG2R67  1  0.346773417049  0.110698234855
  CT1 CG2RC0  1  0.334977918021  0.131646486622
  CT1 CG2R71  1  0.346987232741  0.108300154755
  CT1 CG2RC7  1  0.334977918021  0.131646486622
  CT1 CG301  1  0.338541512893  0.041840000000
  CT1 CG302  1  0.374177461619  0.059170695450
  CT1 CG311  1  0.338541512893  0.041840000000
  CT1 CG312  1  0.351904993665  0.085746484010
  CT1 CG314  1  0.338541512893  0.041840000000
  CT1 CG321  1  0.338541512893  0.041840000000
  CT1 CG322  1  0.338541512893  0.102486650838
  CT1 CG323  1  0.365268474438  0.138767581228
  CT1 CG324  1  0.338541512893  0.041840000000
  CT1 CG331  1  0.338541512893  0.041840000000
  CT1 CG334  1  0.338541512893  0.041840000000
  CT1 CG3C50  1  0.338541512893  0.041840000000
  CT1 CG3C51  1  0.338541512893  0.041840000000
  CT1 CG3C52  1  0.338541512893  0.041840000000
  CT1 CG3C53  1  0.338541512893  0.041840000000
  CT1 CG3C54  1  0.338541512893  0.041840000000
  CT1 CG3C31  1  0.338541512893  0.041840000000
  CT1 CG3C41  1  0.338541512893  0.041840000000
  CT1 CG3RC1  1  0.338541512893  0.041840000000
  CT1 CG3AM0  1  0.344777803920  0.110698234855
  CT1 CG3AM1  1  0.345668702638  0.116852760686
  CT1 CG3AM2  1  0.346559601357  0.118341390899
  CT1 NG1T1  1  0.328741626994  0.177512086349
  CT1 NG2D1  1  0.334087019303  0.187114168357
  CT1 NG2S0  1  0.334087019303  0.004184000000
  CT1 NG2S1  1  0.307360057758  0.187114168357
  CT1 NG2S2  1  0.334087019303  0.187114168357
  CT1 NG2S3  1  0.334087019303  0.187114168357
  CT1 NG2O1  1  0.334087019303  0.187114168357
  CT1 NG2P1  1  0.334087019303  0.187114168357
  CT1 NG2R43  1  0.334087019303  0.187114168357
  CT1 NG2R50  1  0.334087019303  0.187114168357
  CT1 NG2R51  1  0.334087019303  0.187114168357
  CT1 NG2R52  1  0.334087019303  0.187114168357
  CT1 NG2R53  1  0.334087019303  0.187114168357
  CT1 NG2R57  1  0.334087019303  0.187114168357
  CT1 NG2R60  1  0.337650614175  0.102486650838
  CT1 NG2R61  1  0.334087019303  0.187114168357
  CT1 NG2R62  1  0.352795892384  0.093557084179
  CT1 NG2R67  1  0.334087019303  0.187114168357
  CT1 NG2RC0  1  0.334087019303  0.187114168357
  CT1 NG301  1  0.347450500075  0.078275472531
  CT1 NG311  1  0.347450500075  0.088756043175
  CT1 NG321  1  0.346559601357  0.102486650838
  CT1 NG331  1  0.345668702638  0.110698234855
  CT1 NG3C51  1  0.334087019303  0.187114168357
  CT1 NG3N1  1  0.351904993665  0.102486650838
  CT1 NG3P0  1  0.334087019303  0.187114168357
  CT1 NG3P1  1  0.334087019303  0.187114168357
  CT1 NG3P2  1  0.334087019303  0.187114168357
  CT1 NG3P3  1  0.334087019303  0.187114168357
  CT1 OG2D1  1  0.293996576986  0.144938011577
  CT1 OG2D2  1  0.320723538531  0.144938011577
  CT1 OG2D3  1  0.293996576986  0.144938011577
  CT1 OG2D4  1  0.320723538531  0.144938011577
  CT1 OG2D5  1  0.320010819556  0.169954883425
  CT1 OG2N1  1  0.320723538531  0.144938011577
  CT1 OG2P1  1  0.320723538531  0.144938011577
  CT1 OG2R50  1  0.320723538531  0.144938011577
  CT1 OG3R60  1  0.316269044940  0.132309697301
  CT1 OG301  1  0.316269044940  0.132309697301
  CT1 OG302  1  0.316269044940  0.132309697301
  CT1 OG303  1  0.316269044940  0.132309697301
  CT1 OG304  1  0.316269044940  0.132309697301
  CT1 OG311  1  0.326514380198  0.183381431383
  CT1 OG312  1  0.325178032121  0.144938011577
  CT1 OG3C31  1  0.316269044940  0.132309697301
  CT1 OG3C51  1  0.316269044940  0.132309697301
  CT1 OG3C61  1  0.316269044940  0.132309697301
  CT1 OGTIP3  1  0.326799467788  0.163176000000
  CT1 SG2D1  1  0.351904993665  0.314496560236
  CT1 SG2R50  1  0.347450500075  0.280671252536
  CT1 SG311  1  0.347450500075  0.280671252536
  CT1 SG301  1  0.345223253279  0.257919081884
  CT1 SG302  1  0.365268474438  0.286840588481
  CT1 SG3O1  1  0.356359487256  0.286840588481
  CT1 SG3O2  1  0.347450500075  0.247528778125
  CT1 SG3O3  1  0.347450500075  0.247528778125
  CT1  FGA1  1  0.314487247504  0.153729976257
  CT1  FGA2  1  0.314487247504  0.135577095411
  CT1  FGA3  1  0.311814551349  0.130309939452
  CT1  FGP1  1  0.311814551349  0.130309939452
  CT1  FGR1  1  0.320723538531  0.144938011577
  CT1 CLGA1  1  0.339432411611  0.245040988571
  CT1 CLGA3  1  0.339432411611  0.232955260941
  CT1 BRGA1  1  0.344777803920  0.289876023155
  CT1 BRGA2  1  0.351904993665  0.304599797767
  CT1 BRGA3  1  0.347450500075  0.307459952514
  CT1   SOD  1  0.294954293108  0.090610410351
  CT1   CLA  1  0.371504765465  0.162045623205
  CT1   PG0  1  0.360813980847  0.320014464673
  CT1   PG1  1  0.360813980847  0.320014464673
  CT1   PG2  1  0.360813980847  0.320014464673
  CT1  ALG1  1  0.347450500075  0.337324864189
  CT1   LPH  1  0.169270756447  0.000000000000
  CT1 CLGR1  1  0.334977918021  0.200657590935
  CT1 BRGR1  1  0.345668702638  0.236682781799
  CT1  IGR1  1  0.368832069310  0.301712530731
  CT1 SG2P1  1  0.355798221064  0.332305491450
  CT1 OG2S1  1  0.318906105146  0.157831660601
  CT1 SG2P2  1  0.352314807076  0.329421919951
  CT1 SEGD1  1  0.363041227642  0.330244580395
  CT1 BG201  1  0.396449929572  0.081561175077
  CT1 CC301  1  0.338541512893  0.041840000000
  CT1 CC3062  1  0.338541512893  0.041840000000
  CT1 CC311  1  0.338541512893  0.041840000000
  CT1 CC3161  1  0.338541512893  0.041840000000
  CT1 CC3162  1  0.338541512893  0.041840000000
  CT1 CC3163  1  0.338541512893  0.041840000000
  CT1 CC321  1  0.338541512893  0.041840000000
  CT1 CC3261  1  0.338541512893  0.041840000000
  CT1 CC3263  1  0.338541512893  0.041840000000
  CT1 CC331  1  0.338541512893  0.041840000000
  CT1 CC2O1  1  0.347450500075  0.138767581228
  CT1 CC2O2  1  0.347450500075  0.110698234855
  CT1 CC2O3  1  0.347450500075  0.125520000000
  CT1 CC2O4  1  0.329632525712  0.102486650838
  CT1 CC2O5  1  0.320723538531  0.130979917850
  CT1 OC2D1  1  0.293996576986  0.144938011577
  CT1 OC2D2  1  0.320723538531  0.144938011577
  CT1 OC2D3  1  0.293996576986  0.144938011577
  CT1 OC2D4  1  0.293996576986  0.144938011577
  CT1 OC3C61  1  0.316269044940  0.132309697301
  CT1 OC311  1  0.326514380198  0.183381431383
  CT1 NC2D1  1  0.307360057758  0.187114168357
  CT1  HCP1  1  0.189271432669  0.089736802707
  CT1  HCA1  1  0.288651184677  0.088756043175
  CT1  HCA2  1  0.288651184677  0.078275472531
  CT1  HCA3  1  0.288651184677  0.064818249282
  CT1 CC312  1  0.338541512893  0.041840000000
  CT1 CC322  1  0.338541512893  0.041840000000
  CT1  HCR1  1  0.240542653898  0.089736802707
  CT1 HCA3M  1  0.288651184677  0.064818249282
  CT1 CC321C  1  0.338541512893  0.041840000000
  CT1 CC321D  1  0.338541512893  0.041840000000
  CT1 CC311C  1  0.338541512893  0.041840000000
  CT1 CC311D  1  0.338541512893  0.041840000000
  CT1 OC301  1  0.316269044940  0.132309697301
  CT1 OC302  1  0.316269044940  0.132309697301
  CT1 HCP1M  1  0.189271432669  0.089736802707
  CT1 OC311M  1  0.326514380198  0.183381431383
  CT1 OC3C5M  1  0.316269044940  0.132309697301
  CT1 CC322C  1  0.338541512893  0.041840000000
  CT1 HCA2C2  1  0.285087589805  0.078275472531
  CT1 CC312C  1  0.338541512893  0.041840000000
  CT1 HCA1C2  1  0.288651184677  0.088756043175
  CT1 OC3C51  1  0.316269044940  0.132309697301
  CT1 CC3152  1  0.338541512893  0.041840000000
  CT1 CC3051  1  0.338541512893  0.041840000000
  CT1 CC3251  1  0.338541512893  0.041840000000
  CT1 CC3151  1  0.338541512893  0.041840000000
  CT1 CC3153  1  0.338541512893  0.041840000000
  CT1 OC2DP  1  0.320723538531  0.144938011577
  CT1 OC312  1  0.326959829558  0.163176000000
  CT1 OC30P  1  0.326959829558  0.163176000000
  CT1    PC  1  0.360813980847  0.320014464673
  CT1    SC  1  0.356359487256  0.286840588481
  CT1 CC312D  1  0.338541512893  0.041840000000
  CT1 OC303  1  0.316269044940  0.132309697301
  CT1 NC311  1  0.347450500075  0.088756043175
  CT1   HN1  1  0.189271432669  0.089736802707
  CT1   HN2  1  0.189271432669  0.089736802707
  CT1   HN3  1  0.267269615442  0.089736802707
  CT1   HN4  1  0.189271432669  0.089736802707
  CT1   HN5  1  0.189271432669  0.089736802707
  CT1   HN6  1  0.286869387241  0.062058748940
  CT1   HN7  1  0.286869387241  0.062058748940
  CT1   HN8  1  0.288651184677  0.070011711020
  CT1   HN9  1  0.288651184677  0.064818249282
  CT1   NN1  1  0.334087019303  0.187114168357
  CT1   NN2  1  0.334087019303  0.187114168357
  CT1  NN2B  1  0.334087019303  0.187114168357
  CT1  NN2G  1  0.334087019303  0.187114168357
  CT1  NN2U  1  0.334087019303  0.187114168357
  CT1   NN3  1  0.334087019303  0.187114168357
  CT1  NN3A  1  0.334087019303  0.187114168357
  CT1  NN3G  1  0.334087019303  0.187114168357
  CT1   NN4  1  0.334087019303  0.187114168357
  CT1   NN6  1  0.334087019303  0.187114168357
  CT1   ON1  1  0.320723538531  0.144938011577
  CT1  ON1C  1  0.320723538531  0.144938011577
  CT1   ON2  1  0.326959829558  0.163176000000
  CT1   ON3  1  0.320723538531  0.144938011577
  CT1   ON4  1  0.326959829558  0.163176000000
  CT1   ON5  1  0.326959829558  0.163176000000
  CT1   ON6  1  0.326959829558  0.163176000000
  CT1  ON6B  1  0.326959829558  0.163176000000
  CT1   CN1  1  0.338541512893  0.132309697301
  CT1  CN1T  1  0.338541512893  0.132309697301
  CT1   CN2  1  0.338541512893  0.132309697301
  CT1   CN3  1  0.338541512893  0.125520000000
  CT1  CN3T  1  0.338541512893  0.125520000000
  CT1   CN4  1  0.338541512893  0.114583559030
  CT1   CN5  1  0.338541512893  0.114583559030
  CT1  CN5G  1  0.338541512893  0.114583559030
  CT1   CN7  1  0.338541512893  0.041840000000
  CT1  CN7B  1  0.338541512893  0.041840000000
  CT1   CN8  1  0.338541512893  0.041840000000
  CT1  CN8B  1  0.338541512893  0.041840000000
  CT1   CN9  1  0.338541512893  0.041840000000
  CT1     P  1  0.360813980847  0.320014464673
  CT1    P2  1  0.360813980847  0.320014464673
  CT1    P3  1  0.360813980847  0.320014464673
  CT1    P4  1  0.360813980847  0.320014464673
  CT1   HOL  1  0.189271432669  0.089736802707
  CT1  HAL1  1  0.286869387241  0.062058748940
  CT1  HAL2  1  0.288651184677  0.070011711020
  CT1  HAL3  1  0.288651184677  0.064818249282
  CT1   HBL  1  0.286869387241  0.062058748940
  CT1   HCL  1  0.189271432669  0.089736802707
  CT1    HL  1  0.231633666716  0.089736802707
  CT1  HEL1  1  0.280633096214  0.073666921749
  CT1  HEL2  1  0.281523994932  0.067464972838
  CT1    CL  1  0.347450500075  0.110698234855
  CT1   CCL  1  0.347450500075  0.110698234855
  CT1  CTL1  1  0.338541512893  0.041840000000
  CT1  CTL2  1  0.338541512893  0.041840000000
  CT1  CTL3  1  0.338541512893  0.041840000000
  CT1  CTL5  1  0.338541512893  0.041840000000
  CT1  CEL1  1  0.355468588538  0.109105371453
  CT1  CEL2  1  0.354577689820  0.105847757841
  CT1  CRL1  1  0.338541512893  0.041840000000
  CT1  CRL2  1  0.338541512893  0.041840000000
  CT1   OBL  1  0.293996576986  0.144938011577
  CT1   OCL  1  0.320723538531  0.144938011577
  CT1   O2L  1  0.320723538531  0.144938011577
  CT1   OHL  1  0.326959829558  0.163176000000
  CT1   OSL  1  0.316269044940  0.132309697301
  CT1  OSLP  1  0.316269044940  0.132309697301
  CT1  NH3L  1  0.334087019303  0.187114168357
  CT1   NTL  1  0.334087019303  0.187114168357
  CT1    SL  1  0.356359487256  0.286840588481
  CT1    PL  1  0.360813980847  0.320014464673
  CT1 HCA1A  1  0.288651184677  0.088756043175
  CT1 HCA2A  1  0.288651184677  0.078275472531
  CT1 HCA3A  1  0.288651184677  0.064818249282
  CT1 CC30A  1  0.338541512893  0.041840000000
  CT1 CC31A  1  0.338541512893  0.041840000000
  CT1 CC32A  1  0.338541512893  0.041840000000
  CT1 CC33A  1  0.338541512893  0.041840000000
  CT1 CC326A  1  0.338541512893  0.041840000000
  CT1 HCA25A  1  0.285087589805  0.078275472531
  CT1 CC325A  1  0.338541512893  0.041840000000
  CT1 CC325B  1  0.338541512893  0.041840000000
  CT1 OC305A  1  0.316269044940  0.132309697301
  CT1 OC30A  1  0.316269044940  0.132309697301
  CT1  HSIO  1  0.189271432669  0.089736802707
  CT1  HSIA  1  0.286869387241  0.062058748940
  CT1   HAL  1  0.286869387241  0.062058748940
  CT1    AL  1  0.365268474438  0.337324864189
  CT1    SI  1  0.365268474438  0.324091246411
  CT1  SIH3  1  0.365268474438  0.324091246411
  CT1  OSIH  1  0.326959829558  0.163176000000
  CT1  OSIE  1  0.326959829558  0.163176000000
  CT1  OSIA  1  0.326959829558  0.163176000000
  CT1   OAL  1  0.326959829558  0.163176000000
  CT1    HT  1  0.189271432669  0.089736802707
  CT1    OT  1  0.326799467788  0.163176000000
  CT1   DUM  1  0.169270756447  0.000000000000
  CT1    CM  1  0.356359487256  0.138767581228
  CT1   CPA  1  0.329632525712  0.125520000000
  CT1   CPB  1  0.329632525712  0.125520000000
  CT1   CPM  1  0.329632525712  0.125520000000
  CT1   CST  1  0.308518226092  0.100764063435
  CT1  CT1X  1  0.338541512893  0.041840000000
  CT1  CT2X  1  0.338541512893  0.041840000000
  CT1  CT3X  1  0.338541512893  0.041840000000
  CT1    HB  1  0.286869387241  0.062058748940
  CT1   NPH  1  0.334087019303  0.187114168357
  CT1    OM  1  0.320723538531  0.144938011577
  CT1   OST  1  0.320010819556  0.169954883425
  CT1   POT  1  0.326403017859  0.123410269913
  CT1   CAL  1  0.291056611216  0.144938011577
  CT1    MG  1  0.274842254546  0.051243325419
  CT1   CES  1  0.356359487256  0.182376331798
  CT1    ZN  1  0.266378716724  0.209200000000
  CT1    FE  1  0.227179173126  0.000000000000
  CT1    HE  1  0.301123766731  0.061020452073
  CT1    NE  1  0.305578260322  0.122698965603
  CT1  CLAL  1  0.339272049842  0.072469005789
  CT1    AG  1  0.300901042052  0.893457908130
  CT1    AU  1  0.300722862308  0.962320000000
  CT1    CU  1  0.285800308779  0.908997471504
  CT1    NI  1  0.282949432881  0.994525446633
  CT1    PB  1  0.328073452955  0.716185437439
  CT1    PD  1  0.294842930769  1.037598257516
  CT1    PT  1  0.296001099102  1.168527606863
  CT1   CAP  1  0.346773417049  0.110698234855
  CT1    FA  1  0.320723538531  0.144938011577
  CT1    CN  1  0.325178032121  0.187114168357
  CT1    NC  1  0.334087019303  0.324091246411
  CT1   OCA  1  0.293996576986  0.144938011577
  CT1   COA  1  0.347450500075  0.138767581228
  CT1   CF1  1  0.338541512893  0.102486650838
  CT1   CF2  1  0.351904993665  0.085746484010
  CT1   CF3  1  0.374177461619  0.059170695450
  CT1   HF1  1  0.286869387241  0.070011711020
  CT1   HF2  1  0.285087589805  0.072469005789
  CT1    F1  1  0.314487247504  0.153729976257
  CT1    F2  1  0.314487247504  0.135577095411
  CT1    F3  1  0.311814551349  0.130309939452
  CT1    OX  1  0.320723538531  0.144938011577
  CT1    HX  1  0.189271432669  0.089736802707
  CT1  HPER  1  0.189271432669  0.089736802707
  CT1  OPER  1  0.318427692534  0.188901923946
  CT1   LIT  1  0.284864865125  0.020196198771
  CT1   RUB  1  0.338541512893  0.162045623205
  CT1   BAR  1  0.337650614175  0.162045623205
  CT1   CAD  1  0.290165712498  0.144938011577
  CT1  ON2B  1  0.326959829558  0.163176000000
  CT1    SP  1  0.365268474438  0.280671252536
  CT1   HNP  1  0.290272620344  0.072469005789
  CT1  HNE1  1  0.280633096214  0.073666921749
  CT1  HNE2  1  0.281523994932  0.067464972838
  CT1  CN3D  1  0.338541512893  0.125520000000
  CT1  CNE1  1  0.355468588538  0.109105371453
  CT1  CNE2  1  0.354577689820  0.105847757841
  CT1   CNA  1  0.346773417049  0.110698234855
  CT1  CNA2  1  0.338541512893  0.110698234855
  CT1   CNG  1  0.347450500075  0.138767581228
  CT1  NN1C  1  0.334087019303  0.187114168357
  CT1  NN2C  1  0.334087019303  0.187114168357
  CT1  NN3I  1  0.334087019303  0.187114168357
  CT1   NNG  1  0.334087019303  0.187114168357
  CT1   FNA  1  0.320723538531  0.144938011577
  CT1  ON2M  1  0.316269044940  0.132309697301
  CT1   CN6  1  0.338541512893  0.041840000000
  CT1  CN7E  1  0.338541512893  0.041840000000
  CT1  CT2P  1  0.338541512893  0.041840000000
  CT1  CTD1  1  0.338541512893  0.041840000000
  CT1  CPD1  1  0.338541512893  0.041840000000
  CT1  CC1A  1  0.355468588538  0.109105371453
  CT1  CC1B  1  0.355468588538  0.109105371453
  CT1   CC2  1  0.354577689820  0.105847757841
  CT1   NS1  1  0.334087019303  0.187114168357
  CT1   NS2  1  0.334087019303  0.187114168357
  CT1   NHL  1  0.307360057758  0.187114168357
  CT1  CTO1  1  0.338541512893  0.041840000000
  CT1  CEL3  1  0.355468588538  0.109105371453
  CT1  CTO2  1  0.338541512893  0.041840000000
  CT1  HN3B  1  0.249451641079  0.089736802707
  CT1  CN1A  1  0.347450500075  0.110698234855
  CT1  CN3A  1  0.329632525712  0.177512086349
  CT1  CN3B  1  0.329632525712  0.177512086349
  CT1  CN3C  1  0.329632525712  0.177512086349
  CT2     C  1  0.347450500075  0.138767581228
  CT2    CA  1  0.346773417049  0.110698234855
  CT2    CC  1  0.347450500075  0.110698234855
  CT2    CD  1  0.347450500075  0.110698234855
  CT2   CE1  1  0.355468588538  0.109105371453
  CT2   CE2  1  0.354577689820  0.105847757841
  CT2   CP1  1  0.338541512893  0.041840000000
  CT2   CP2  1  0.338541512893  0.041840000000
  CT2   CP3  1  0.338541512893  0.041840000000
  CT2  CPH1  1  0.329632525712  0.093557084179
  CT2  CPH2  1  0.329632525712  0.093557084179
  CT2    CS  1  0.365268474438  0.138767581228
  CT2   CPT  1  0.334977918021  0.131646486622
  CT2    CY  1  0.346559601357  0.113045454929
  CT2   CAI  1  0.346559601357  0.113045454929
  CT2    CT  1  0.338541512893  0.041840000000
  CT2   CT1  1  0.338541512893  0.041840000000
  CT2   CT2  1  0.338541512893  0.041840000000
  CT2  CT2A  1  0.338541512893  0.041840000000
  CT2   CT3  1  0.338541512893  0.041840000000
  CT2    C3  1  0.371950214824  0.059170695450
  CT2     H  1  0.189271432669  0.089736802707
  CT2    HA  1  0.286869387241  0.062058748940
  CT2   HB1  1  0.286869387241  0.062058748940
  CT2   HB2  1  0.288651184677  0.070011711020
  CT2   HE1  1  0.280633096214  0.073666921749
  CT2   HE2  1  0.281523994932  0.067464972838
  CT2    HC  1  0.189271432669  0.089736802707
  CT2    HP  1  0.290272620344  0.072469005789
  CT2   HR1  1  0.249451641079  0.089736802707
  CT2   HR2  1  0.231633666716  0.089736802707
  CT2   HR3  1  0.300054688270  0.036952087465
  CT2    HS  1  0.209361198763  0.132309697301
  CT2   HA1  1  0.288651184677  0.088756043175
  CT2   HA2  1  0.288651184677  0.077149148019
  CT2   HA3  1  0.288651184677  0.064818249282
  CT2     N  1  0.334087019303  0.004184000000
  CT2   NC2  1  0.334087019303  0.187114168357
  CT2   NH1  1  0.307360057758  0.187114168357
  CT2   NH2  1  0.334087019303  0.187114168357
  CT2   NH3  1  0.334087019303  0.187114168357
  CT2    NP  1  0.334087019303  0.187114168357
  CT2   NR1  1  0.334087019303  0.187114168357
  CT2   NR2  1  0.334087019303  0.187114168357
  CT2   NR3  1  0.334087019303  0.187114168357
  CT2    NY  1  0.334087019303  0.187114168357
  CT2     O  1  0.293996576986  0.144938011577
  CT2    OB  1  0.293996576986  0.144938011577
  CT2    OC  1  0.320723538531  0.144938011577
  CT2   OH1  1  0.326959829558  0.163176000000
  CT2    OS  1  0.326959829558  0.163176000000
  CT2     S  1  0.347450500075  0.280671252536
  CT2    SM  1  0.345223253279  0.257919081884
  CT2    SS  1  0.365268474438  0.286840588481
  CT2  HGA1  1  0.288651184677  0.088756043175
  CT2  HGA2  1  0.288651184677  0.078275472531
  CT2  HGA3  1  0.288651184677  0.064818249282
  CT2  HGA4  1  0.280633096214  0.073666921749
  CT2  HGA5  1  0.281523994932  0.067464972838
  CT2  HGA6  1  0.286869387241  0.070011711020
  CT2  HGA7  1  0.285087589805  0.072469005789
  CT2 HGAAM0  1  0.283305792369  0.070011711020
  CT2 HGAAM1  1  0.283305792369  0.070011711020
  CT2 HGAAM2  1  0.281523994932  0.083680000000
  CT2  HGP1  1  0.189271432669  0.089736802707
  CT2  HGP2  1  0.189271432669  0.089736802707
  CT2  HGP3  1  0.209361198763  0.132309697301
  CT2  HGP4  1  0.189271432669  0.089736802707
  CT2  HGP5  1  0.231633666716  0.089736802707
  CT2 HGPAM1  1  0.247224394284  0.039692909190
  CT2 HGPAM2  1  0.247224394284  0.041840000000
  CT2 HGPAM3  1  0.246778944925  0.045833423612
  CT2 HGR51  1  0.290272620344  0.072469005789
  CT2 HGR52  1  0.249451641079  0.089736802707
  CT2 HGR53  1  0.231633666716  0.089736802707
  CT2 HGR61  1  0.290272620344  0.072469005789
  CT2 HGR62  1  0.267269615442  0.089736802707
  CT2 HGR63  1  0.249451641079  0.089736802707
  CT2 HGR71  1  0.290272620344  0.072469005789
  CT2 HGTIP3  1  0.189271432669  0.089736802707
  CT2 CG1T1  1  0.333196120584  0.170981810495
  CT2 CG1T2  1  0.346782326036  0.134409982486
  CT2 CG1N1  1  0.335868816739  0.177512086349
  CT2 CG2D1  1  0.355468588538  0.109105371453
  CT2 CG2D2  1  0.354577689820  0.105847757841
  CT2 CG2D1O  1  0.355468588538  0.109105371453
  CT2 CG2D2O  1  0.355468588538  0.109105371453
  CT2 CG2DC1  1  0.355468588538  0.109105371453
  CT2 CG2DC2  1  0.355468588538  0.109105371453
  CT2 CG2DC3  1  0.354577689820  0.105847757841
  CT2 CG2N1  1  0.347450500075  0.138767581228
  CT2 CG2N2  1  0.347450500075  0.138767581228
  CT2 CG2O1  1  0.347450500075  0.138767581228
  CT2 CG2O2  1  0.320723538531  0.130979917850
  CT2 CG2O3  1  0.347450500075  0.110698234855
  CT2 CG2O4  1  0.329632525712  0.102486650838
  CT2 CG2O5  1  0.347450500075  0.125520000000
  CT2 CG2O6  1  0.347450500075  0.110698234855
  CT2 CG2O7  1  0.308518226092  0.100764063435
  CT2 CG2R51  1  0.356359487256  0.093557084179
  CT2 CG2R52  1  0.365268474438  0.059170695450
  CT2 CG2R53  1  0.365268474438  0.059170695450
  CT2 CG2R57  1  0.356359487256  0.093557084179
  CT2 CG25C1  1  0.355468588538  0.109105371453
  CT2 CG25C2  1  0.355468588538  0.109105371453
  CT2 CG251O  1  0.355468588538  0.109105371453
  CT2 CG252O  1  0.355468588538  0.109105371453
  CT2 CG2R61  1  0.346773417049  0.110698234855
  CT2 CG2R62  1  0.338541512893  0.125520000000
  CT2 CG2R63  1  0.338541512893  0.132309697301
  CT2 CG2R64  1  0.356359487256  0.083680000000
  CT2 CG2R66  1  0.338541512893  0.110698234855
  CT2 CG2R67  1  0.346773417049  0.110698234855
  CT2 CG2RC0  1  0.334977918021  0.131646486622
  CT2 CG2R71  1  0.346987232741  0.108300154755
  CT2 CG2RC7  1  0.334977918021  0.131646486622
  CT2 CG301  1  0.338541512893  0.041840000000
  CT2 CG302  1  0.374177461619  0.059170695450
  CT2 CG311  1  0.338541512893  0.041840000000
  CT2 CG312  1  0.351904993665  0.085746484010
  CT2 CG314  1  0.338541512893  0.041840000000
  CT2 CG321  1  0.338541512893  0.041840000000
  CT2 CG322  1  0.338541512893  0.102486650838
  CT2 CG323  1  0.365268474438  0.138767581228
  CT2 CG324  1  0.338541512893  0.041840000000
  CT2 CG331  1  0.338541512893  0.041840000000
  CT2 CG334  1  0.338541512893  0.041840000000
  CT2 CG3C50  1  0.338541512893  0.041840000000
  CT2 CG3C51  1  0.338541512893  0.041840000000
  CT2 CG3C52  1  0.338541512893  0.041840000000
  CT2 CG3C53  1  0.338541512893  0.041840000000
  CT2 CG3C54  1  0.338541512893  0.041840000000
  CT2 CG3C31  1  0.338541512893  0.041840000000
  CT2 CG3C41  1  0.338541512893  0.041840000000
  CT2 CG3RC1  1  0.338541512893  0.041840000000
  CT2 CG3AM0  1  0.344777803920  0.110698234855
  CT2 CG3AM1  1  0.345668702638  0.116852760686
  CT2 CG3AM2  1  0.346559601357  0.118341390899
  CT2 NG1T1  1  0.328741626994  0.177512086349
  CT2 NG2D1  1  0.334087019303  0.187114168357
  CT2 NG2S0  1  0.334087019303  0.004184000000
  CT2 NG2S1  1  0.307360057758  0.187114168357
  CT2 NG2S2  1  0.334087019303  0.187114168357
  CT2 NG2S3  1  0.334087019303  0.187114168357
  CT2 NG2O1  1  0.334087019303  0.187114168357
  CT2 NG2P1  1  0.334087019303  0.187114168357
  CT2 NG2R43  1  0.334087019303  0.187114168357
  CT2 NG2R50  1  0.334087019303  0.187114168357
  CT2 NG2R51  1  0.334087019303  0.187114168357
  CT2 NG2R52  1  0.334087019303  0.187114168357
  CT2 NG2R53  1  0.334087019303  0.187114168357
  CT2 NG2R57  1  0.334087019303  0.187114168357
  CT2 NG2R60  1  0.337650614175  0.102486650838
  CT2 NG2R61  1  0.334087019303  0.187114168357
  CT2 NG2R62  1  0.352795892384  0.093557084179
  CT2 NG2R67  1  0.334087019303  0.187114168357
  CT2 NG2RC0  1  0.334087019303  0.187114168357
  CT2 NG301  1  0.347450500075  0.078275472531
  CT2 NG311  1  0.347450500075  0.088756043175
  CT2 NG321  1  0.346559601357  0.102486650838
  CT2 NG331  1  0.345668702638  0.110698234855
  CT2 NG3C51  1  0.334087019303  0.187114168357
  CT2 NG3N1  1  0.351904993665  0.102486650838
  CT2 NG3P0  1  0.334087019303  0.187114168357
  CT2 NG3P1  1  0.334087019303  0.187114168357
  CT2 NG3P2  1  0.334087019303  0.187114168357
  CT2 NG3P3  1  0.334087019303  0.187114168357
  CT2 OG2D1  1  0.293996576986  0.144938011577
  CT2 OG2D2  1  0.320723538531  0.144938011577
  CT2 OG2D3  1  0.293996576986  0.144938011577
  CT2 OG2D4  1  0.320723538531  0.144938011577
  CT2 OG2D5  1  0.320010819556  0.169954883425
  CT2 OG2N1  1  0.320723538531  0.144938011577
  CT2 OG2P1  1  0.320723538531  0.144938011577
  CT2 OG2R50  1  0.320723538531  0.144938011577
  CT2 OG3R60  1  0.316269044940  0.132309697301
  CT2 OG301  1  0.316269044940  0.132309697301
  CT2 OG302  1  0.316269044940  0.132309697301
  CT2 OG303  1  0.316269044940  0.132309697301
  CT2 OG304  1  0.316269044940  0.132309697301
  CT2 OG311  1  0.326514380198  0.183381431383
  CT2 OG312  1  0.325178032121  0.144938011577
  CT2 OG3C31  1  0.316269044940  0.132309697301
  CT2 OG3C51  1  0.316269044940  0.132309697301
  CT2 OG3C61  1  0.316269044940  0.132309697301
  CT2 OGTIP3  1  0.326799467788  0.163176000000
  CT2 SG2D1  1  0.351904993665  0.314496560236
  CT2 SG2R50  1  0.347450500075  0.280671252536
  CT2 SG311  1  0.347450500075  0.280671252536
  CT2 SG301  1  0.345223253279  0.257919081884
  CT2 SG302  1  0.365268474438  0.286840588481
  CT2 SG3O1  1  0.356359487256  0.286840588481
  CT2 SG3O2  1  0.347450500075  0.247528778125
  CT2 SG3O3  1  0.347450500075  0.247528778125
  CT2  FGA1  1  0.314487247504  0.153729976257
  CT2  FGA2  1  0.314487247504  0.135577095411
  CT2  FGA3  1  0.311814551349  0.130309939452
  CT2  FGP1  1  0.311814551349  0.130309939452
  CT2  FGR1  1  0.320723538531  0.144938011577
  CT2 CLGA1  1  0.339432411611  0.245040988571
  CT2 CLGA3  1  0.339432411611  0.232955260941
  CT2 BRGA1  1  0.344777803920  0.289876023155
  CT2 BRGA2  1  0.351904993665  0.304599797767
  CT2 BRGA3  1  0.347450500075  0.307459952514
  CT2   SOD  1  0.294954293108  0.090610410351
  CT2   CLA  1  0.371504765465  0.162045623205
  CT2   PG0  1  0.360813980847  0.320014464673
  CT2   PG1  1  0.360813980847  0.320014464673
  CT2   PG2  1  0.360813980847  0.320014464673
  CT2  ALG1  1  0.347450500075  0.337324864189
  CT2   LPH  1  0.169270756447  0.000000000000
  CT2 CLGR1  1  0.334977918021  0.200657590935
  CT2 BRGR1  1  0.345668702638  0.236682781799
  CT2  IGR1  1  0.368832069310  0.301712530731
  CT2 SG2P1  1  0.355798221064  0.332305491450
  CT2 OG2S1  1  0.318906105146  0.157831660601
  CT2 SG2P2  1  0.352314807076  0.329421919951
  CT2 SEGD1  1  0.363041227642  0.330244580395
  CT2 BG201  1  0.396449929572  0.081561175077
  CT2 CC301  1  0.338541512893  0.041840000000
  CT2 CC3062  1  0.338541512893  0.041840000000
  CT2 CC311  1  0.338541512893  0.041840000000
  CT2 CC3161  1  0.338541512893  0.041840000000
  CT2 CC3162  1  0.338541512893  0.041840000000
  CT2 CC3163  1  0.338541512893  0.041840000000
  CT2 CC321  1  0.338541512893  0.041840000000
  CT2 CC3261  1  0.338541512893  0.041840000000
  CT2 CC3263  1  0.338541512893  0.041840000000
  CT2 CC331  1  0.338541512893  0.041840000000
  CT2 CC2O1  1  0.347450500075  0.138767581228
  CT2 CC2O2  1  0.347450500075  0.110698234855
  CT2 CC2O3  1  0.347450500075  0.125520000000
  CT2 CC2O4  1  0.329632525712  0.102486650838
  CT2 CC2O5  1  0.320723538531  0.130979917850
  CT2 OC2D1  1  0.293996576986  0.144938011577
  CT2 OC2D2  1  0.320723538531  0.144938011577
  CT2 OC2D3  1  0.293996576986  0.144938011577
  CT2 OC2D4  1  0.293996576986  0.144938011577
  CT2 OC3C61  1  0.316269044940  0.132309697301
  CT2 OC311  1  0.326514380198  0.183381431383
  CT2 NC2D1  1  0.307360057758  0.187114168357
  CT2  HCP1  1  0.189271432669  0.089736802707
  CT2  HCA1  1  0.288651184677  0.088756043175
  CT2  HCA2  1  0.288651184677  0.078275472531
  CT2  HCA3  1  0.288651184677  0.064818249282
  CT2 CC312  1  0.338541512893  0.041840000000
  CT2 CC322  1  0.338541512893  0.041840000000
  CT2  HCR1  1  0.240542653898  0.089736802707
  CT2 HCA3M  1  0.288651184677  0.064818249282
  CT2 CC321C  1  0.338541512893  0.041840000000
  CT2 CC321D  1  0.338541512893  0.041840000000
  CT2 CC311C  1  0.338541512893  0.041840000000
  CT2 CC311D  1  0.338541512893  0.041840000000
  CT2 OC301  1  0.316269044940  0.132309697301
  CT2 OC302  1  0.316269044940  0.132309697301
  CT2 HCP1M  1  0.189271432669  0.089736802707
  CT2 OC311M  1  0.326514380198  0.183381431383
  CT2 OC3C5M  1  0.316269044940  0.132309697301
  CT2 CC322C  1  0.338541512893  0.041840000000
  CT2 HCA2C2  1  0.285087589805  0.078275472531
  CT2 CC312C  1  0.338541512893  0.041840000000
  CT2 HCA1C2  1  0.288651184677  0.088756043175
  CT2 OC3C51  1  0.316269044940  0.132309697301
  CT2 CC3152  1  0.338541512893  0.041840000000
  CT2 CC3051  1  0.338541512893  0.041840000000
  CT2 CC3251  1  0.338541512893  0.041840000000
  CT2 CC3151  1  0.338541512893  0.041840000000
  CT2 CC3153  1  0.338541512893  0.041840000000
  CT2 OC2DP  1  0.320723538531  0.144938011577
  CT2 OC312  1  0.326959829558  0.163176000000
  CT2 OC30P  1  0.326959829558  0.163176000000
  CT2    PC  1  0.360813980847  0.320014464673
  CT2    SC  1  0.356359487256  0.286840588481
  CT2 CC312D  1  0.338541512893  0.041840000000
  CT2 OC303  1  0.316269044940  0.132309697301
  CT2 NC311  1  0.347450500075  0.088756043175
  CT2   HN1  1  0.189271432669  0.089736802707
  CT2   HN2  1  0.189271432669  0.089736802707
  CT2   HN3  1  0.267269615442  0.089736802707
  CT2   HN4  1  0.189271432669  0.089736802707
  CT2   HN5  1  0.189271432669  0.089736802707
  CT2   HN6  1  0.286869387241  0.062058748940
  CT2   HN7  1  0.286869387241  0.062058748940
  CT2   HN8  1  0.288651184677  0.070011711020
  CT2   HN9  1  0.288651184677  0.064818249282
  CT2   NN1  1  0.334087019303  0.187114168357
  CT2   NN2  1  0.334087019303  0.187114168357
  CT2  NN2B  1  0.334087019303  0.187114168357
  CT2  NN2G  1  0.334087019303  0.187114168357
  CT2  NN2U  1  0.334087019303  0.187114168357
  CT2   NN3  1  0.334087019303  0.187114168357
  CT2  NN3A  1  0.334087019303  0.187114168357
  CT2  NN3G  1  0.334087019303  0.187114168357
  CT2   NN4  1  0.334087019303  0.187114168357
  CT2   NN6  1  0.334087019303  0.187114168357
  CT2   ON1  1  0.320723538531  0.144938011577
  CT2  ON1C  1  0.320723538531  0.144938011577
  CT2   ON2  1  0.326959829558  0.163176000000
  CT2   ON3  1  0.320723538531  0.144938011577
  CT2   ON4  1  0.326959829558  0.163176000000
  CT2   ON5  1  0.326959829558  0.163176000000
  CT2   ON6  1  0.326959829558  0.163176000000
  CT2  ON6B  1  0.326959829558  0.163176000000
  CT2   CN1  1  0.338541512893  0.132309697301
  CT2  CN1T  1  0.338541512893  0.132309697301
  CT2   CN2  1  0.338541512893  0.132309697301
  CT2   CN3  1  0.338541512893  0.125520000000
  CT2  CN3T  1  0.338541512893  0.125520000000
  CT2   CN4  1  0.338541512893  0.114583559030
  CT2   CN5  1  0.338541512893  0.114583559030
  CT2  CN5G  1  0.338541512893  0.114583559030
  CT2   CN7  1  0.338541512893  0.041840000000
  CT2  CN7B  1  0.338541512893  0.041840000000
  CT2   CN8  1  0.338541512893  0.041840000000
  CT2  CN8B  1  0.338541512893  0.041840000000
  CT2   CN9  1  0.338541512893  0.041840000000
  CT2     P  1  0.360813980847  0.320014464673
  CT2    P2  1  0.360813980847  0.320014464673
  CT2    P3  1  0.360813980847  0.320014464673
  CT2    P4  1  0.360813980847  0.320014464673
  CT2   HOL  1  0.189271432669  0.089736802707
  CT2  HAL1  1  0.286869387241  0.062058748940
  CT2  HAL2  1  0.288651184677  0.070011711020
  CT2  HAL3  1  0.288651184677  0.064818249282
  CT2   HBL  1  0.286869387241  0.062058748940
  CT2   HCL  1  0.189271432669  0.089736802707
  CT2    HL  1  0.231633666716  0.089736802707
  CT2  HEL1  1  0.280633096214  0.073666921749
  CT2  HEL2  1  0.281523994932  0.067464972838
  CT2    CL  1  0.347450500075  0.110698234855
  CT2   CCL  1  0.347450500075  0.110698234855
  CT2  CTL1  1  0.338541512893  0.041840000000
  CT2  CTL2  1  0.338541512893  0.041840000000
  CT2  CTL3  1  0.338541512893  0.041840000000
  CT2  CTL5  1  0.338541512893  0.041840000000
  CT2  CEL1  1  0.355468588538  0.109105371453
  CT2  CEL2  1  0.354577689820  0.105847757841
  CT2  CRL1  1  0.338541512893  0.041840000000
  CT2  CRL2  1  0.338541512893  0.041840000000
  CT2   OBL  1  0.293996576986  0.144938011577
  CT2   OCL  1  0.320723538531  0.144938011577
  CT2   O2L  1  0.320723538531  0.144938011577
  CT2   OHL  1  0.326959829558  0.163176000000
  CT2   OSL  1  0.316269044940  0.132309697301
  CT2  OSLP  1  0.316269044940  0.132309697301
  CT2  NH3L  1  0.334087019303  0.187114168357
  CT2   NTL  1  0.334087019303  0.187114168357
  CT2    SL  1  0.356359487256  0.286840588481
  CT2    PL  1  0.360813980847  0.320014464673
  CT2 HCA1A  1  0.288651184677  0.088756043175
  CT2 HCA2A  1  0.288651184677  0.078275472531
  CT2 HCA3A  1  0.288651184677  0.064818249282
  CT2 CC30A  1  0.338541512893  0.041840000000
  CT2 CC31A  1  0.338541512893  0.041840000000
  CT2 CC32A  1  0.338541512893  0.041840000000
  CT2 CC33A  1  0.338541512893  0.041840000000
  CT2 CC326A  1  0.338541512893  0.041840000000
  CT2 HCA25A  1  0.285087589805  0.078275472531
  CT2 CC325A  1  0.338541512893  0.041840000000
  CT2 CC325B  1  0.338541512893  0.041840000000
  CT2 OC305A  1  0.316269044940  0.132309697301
  CT2 OC30A  1  0.316269044940  0.132309697301
  CT2  HSIO  1  0.189271432669  0.089736802707
  CT2  HSIA  1  0.286869387241  0.062058748940
  CT2   HAL  1  0.286869387241  0.062058748940
  CT2    AL  1  0.365268474438  0.337324864189
  CT2    SI  1  0.365268474438  0.324091246411
  CT2  SIH3  1  0.365268474438  0.324091246411
  CT2  OSIH  1  0.326959829558  0.163176000000
  CT2  OSIE  1  0.326959829558  0.163176000000
  CT2  OSIA  1  0.326959829558  0.163176000000
  CT2   OAL  1  0.326959829558  0.163176000000
  CT2    HT  1  0.189271432669  0.089736802707
  CT2    OT  1  0.326799467788  0.163176000000
  CT2   DUM  1  0.169270756447  0.000000000000
  CT2    CM  1  0.356359487256  0.138767581228
  CT2   CPA  1  0.329632525712  0.125520000000
  CT2   CPB  1  0.329632525712  0.125520000000
  CT2   CPM  1  0.329632525712  0.125520000000
  CT2   CST  1  0.308518226092  0.100764063435
  CT2  CT1X  1  0.338541512893  0.041840000000
  CT2  CT2X  1  0.338541512893  0.041840000000
  CT2  CT3X  1  0.338541512893  0.041840000000
  CT2    HB  1  0.286869387241  0.062058748940
  CT2   NPH  1  0.334087019303  0.187114168357
  CT2    OM  1  0.320723538531  0.144938011577
  CT2   OST  1  0.320010819556  0.169954883425
  CT2   POT  1  0.326403017859  0.123410269913
  CT2   CAL  1  0.291056611216  0.144938011577
  CT2    MG  1  0.274842254546  0.051243325419
  CT2   CES  1  0.356359487256  0.182376331798
  CT2    ZN  1  0.266378716724  0.209200000000
  CT2    FE  1  0.227179173126  0.000000000000
  CT2    HE  1  0.301123766731  0.061020452073
  CT2    NE  1  0.305578260322  0.122698965603
  CT2  CLAL  1  0.339272049842  0.072469005789
  CT2    AG  1  0.300901042052  0.893457908130
  CT2    AU  1  0.300722862308  0.962320000000
  CT2    CU  1  0.285800308779  0.908997471504
  CT2    NI  1  0.282949432881  0.994525446633
  CT2    PB  1  0.328073452955  0.716185437439
  CT2    PD  1  0.294842930769  1.037598257516
  CT2    PT  1  0.296001099102  1.168527606863
  CT2   CAP  1  0.346773417049  0.110698234855
  CT2    FA  1  0.320723538531  0.144938011577
  CT2    CN  1  0.325178032121  0.187114168357
  CT2    NC  1  0.334087019303  0.324091246411
  CT2   OCA  1  0.293996576986  0.144938011577
  CT2   COA  1  0.347450500075  0.138767581228
  CT2   CF1  1  0.338541512893  0.102486650838
  CT2   CF2  1  0.351904993665  0.085746484010
  CT2   CF3  1  0.374177461619  0.059170695450
  CT2   HF1  1  0.286869387241  0.070011711020
  CT2   HF2  1  0.285087589805  0.072469005789
  CT2    F1  1  0.314487247504  0.153729976257
  CT2    F2  1  0.314487247504  0.135577095411
  CT2    F3  1  0.311814551349  0.130309939452
  CT2    OX  1  0.320723538531  0.144938011577
  CT2    HX  1  0.189271432669  0.089736802707
  CT2  HPER  1  0.189271432669  0.089736802707
  CT2  OPER  1  0.318427692534  0.188901923946
  CT2   LIT  1  0.284864865125  0.020196198771
  CT2   RUB  1  0.338541512893  0.162045623205
  CT2   BAR  1  0.337650614175  0.162045623205
  CT2   CAD  1  0.290165712498  0.144938011577
  CT2  ON2B  1  0.326959829558  0.163176000000
  CT2    SP  1  0.365268474438  0.280671252536
  CT2   HNP  1  0.290272620344  0.072469005789
  CT2  HNE1  1  0.280633096214  0.073666921749
  CT2  HNE2  1  0.281523994932  0.067464972838
  CT2  CN3D  1  0.338541512893  0.125520000000
  CT2  CNE1  1  0.355468588538  0.109105371453
  CT2  CNE2  1  0.354577689820  0.105847757841
  CT2   CNA  1  0.346773417049  0.110698234855
  CT2  CNA2  1  0.338541512893  0.110698234855
  CT2   CNG  1  0.347450500075  0.138767581228
  CT2  NN1C  1  0.334087019303  0.187114168357
  CT2  NN2C  1  0.334087019303  0.187114168357
  CT2  NN3I  1  0.334087019303  0.187114168357
  CT2   NNG  1  0.334087019303  0.187114168357
  CT2   FNA  1  0.320723538531  0.144938011577
  CT2  ON2M  1  0.316269044940  0.132309697301
  CT2   CN6  1  0.338541512893  0.041840000000
  CT2  CN7E  1  0.338541512893  0.041840000000
  CT2  CT2P  1  0.338541512893  0.041840000000
  CT2  CTD1  1  0.338541512893  0.041840000000
  CT2  CPD1  1  0.338541512893  0.041840000000
  CT2  CC1A  1  0.355468588538  0.109105371453
  CT2  CC1B  1  0.355468588538  0.109105371453
  CT2   CC2  1  0.354577689820  0.105847757841
  CT2   NS1  1  0.334087019303  0.187114168357
  CT2   NS2  1  0.334087019303  0.187114168357
  CT2   NHL  1  0.307360057758  0.187114168357
  CT2  CTO1  1  0.338541512893  0.041840000000
  CT2  CEL3  1  0.355468588538  0.109105371453
  CT2  CTO2  1  0.338541512893  0.041840000000
  CT2  HN3B  1  0.249451641079  0.089736802707
  CT2  CN1A  1  0.347450500075  0.110698234855
  CT2  CN3A  1  0.329632525712  0.177512086349
  CT2  CN3B  1  0.329632525712  0.177512086349
  CT2  CN3C  1  0.329632525712  0.177512086349
 CT2A     C  1  0.347450500075  0.138767581228
 CT2A    CA  1  0.346773417049  0.110698234855
 CT2A    CC  1  0.347450500075  0.110698234855
 CT2A    CD  1  0.347450500075  0.110698234855
 CT2A   CE1  1  0.355468588538  0.109105371453
 CT2A   CE2  1  0.354577689820  0.105847757841
 CT2A   CP1  1  0.338541512893  0.041840000000
 CT2A   CP2  1  0.338541512893  0.041840000000
 CT2A   CP3  1  0.338541512893  0.041840000000
 CT2A  CPH1  1  0.329632525712  0.093557084179
 CT2A  CPH2  1  0.329632525712  0.093557084179
 CT2A    CS  1  0.365268474438  0.138767581228
 CT2A   CPT  1  0.334977918021  0.131646486622
 CT2A    CY  1  0.346559601357  0.113045454929
 CT2A   CAI  1  0.346559601357  0.113045454929
 CT2A    CT  1  0.338541512893  0.041840000000
 CT2A   CT1  1  0.338541512893  0.041840000000
 CT2A   CT2  1  0.338541512893  0.041840000000
 CT2A  CT2A  1  0.338541512893  0.041840000000
 CT2A   CT3  1  0.338541512893  0.041840000000
 CT2A    C3  1  0.371950214824  0.059170695450
 CT2A     H  1  0.189271432669  0.089736802707
 CT2A    HA  1  0.286869387241  0.062058748940
 CT2A   HB1  1  0.286869387241  0.062058748940
 CT2A   HB2  1  0.288651184677  0.070011711020
 CT2A   HE1  1  0.280633096214  0.073666921749
 CT2A   HE2  1  0.281523994932  0.067464972838
 CT2A    HC  1  0.189271432669  0.089736802707
 CT2A    HP  1  0.290272620344  0.072469005789
 CT2A   HR1  1  0.249451641079  0.089736802707
 CT2A   HR2  1  0.231633666716  0.089736802707
 CT2A   HR3  1  0.300054688270  0.036952087465
 CT2A    HS  1  0.209361198763  0.132309697301
 CT2A   HA1  1  0.288651184677  0.088756043175
 CT2A   HA2  1  0.288651184677  0.077149148019
 CT2A   HA3  1  0.288651184677  0.064818249282
 CT2A     N  1  0.334087019303  0.004184000000
 CT2A   NC2  1  0.334087019303  0.187114168357
 CT2A   NH1  1  0.307360057758  0.187114168357
 CT2A   NH2  1  0.334087019303  0.187114168357
 CT2A   NH3  1  0.334087019303  0.187114168357
 CT2A    NP  1  0.334087019303  0.187114168357
 CT2A   NR1  1  0.334087019303  0.187114168357
 CT2A   NR2  1  0.334087019303  0.187114168357
 CT2A   NR3  1  0.334087019303  0.187114168357
 CT2A    NY  1  0.334087019303  0.187114168357
 CT2A     O  1  0.293996576986  0.144938011577
 CT2A    OB  1  0.293996576986  0.144938011577
 CT2A    OC  1  0.320723538531  0.144938011577
 CT2A   OH1  1  0.326959829558  0.163176000000
 CT2A    OS  1  0.326959829558  0.163176000000
 CT2A     S  1  0.347450500075  0.280671252536
 CT2A    SM  1  0.345223253279  0.257919081884
 CT2A    SS  1  0.365268474438  0.286840588481
 CT2A  HGA1  1  0.288651184677  0.088756043175
 CT2A  HGA2  1  0.288651184677  0.078275472531
 CT2A  HGA3  1  0.288651184677  0.064818249282
 CT2A  HGA4  1  0.280633096214  0.073666921749
 CT2A  HGA5  1  0.281523994932  0.067464972838
 CT2A  HGA6  1  0.286869387241  0.070011711020
 CT2A  HGA7  1  0.285087589805  0.072469005789
 CT2A HGAAM0  1  0.283305792369  0.070011711020
 CT2A HGAAM1  1  0.283305792369  0.070011711020
 CT2A HGAAM2  1  0.281523994932  0.083680000000
 CT2A  HGP1  1  0.189271432669  0.089736802707
 CT2A  HGP2  1  0.189271432669  0.089736802707
 CT2A  HGP3  1  0.209361198763  0.132309697301
 CT2A  HGP4  1  0.189271432669  0.089736802707
 CT2A  HGP5  1  0.231633666716  0.089736802707
 CT2A HGPAM1  1  0.247224394284  0.039692909190
 CT2A HGPAM2  1  0.247224394284  0.041840000000
 CT2A HGPAM3  1  0.246778944925  0.045833423612
 CT2A HGR51  1  0.290272620344  0.072469005789
 CT2A HGR52  1  0.249451641079  0.089736802707
 CT2A HGR53  1  0.231633666716  0.089736802707
 CT2A HGR61  1  0.290272620344  0.072469005789
 CT2A HGR62  1  0.267269615442  0.089736802707
 CT2A HGR63  1  0.249451641079  0.089736802707
 CT2A HGR71  1  0.290272620344  0.072469005789
 CT2A HGTIP3  1  0.189271432669  0.089736802707
 CT2A CG1T1  1  0.333196120584  0.170981810495
 CT2A CG1T2  1  0.346782326036  0.134409982486
 CT2A CG1N1  1  0.335868816739  0.177512086349
 CT2A CG2D1  1  0.355468588538  0.109105371453
 CT2A CG2D2  1  0.354577689820  0.105847757841
 CT2A CG2D1O  1  0.355468588538  0.109105371453
 CT2A CG2D2O  1  0.355468588538  0.109105371453
 CT2A CG2DC1  1  0.355468588538  0.109105371453
 CT2A CG2DC2  1  0.355468588538  0.109105371453
 CT2A CG2DC3  1  0.354577689820  0.105847757841
 CT2A CG2N1  1  0.347450500075  0.138767581228
 CT2A CG2N2  1  0.347450500075  0.138767581228
 CT2A CG2O1  1  0.347450500075  0.138767581228
 CT2A CG2O2  1  0.320723538531  0.130979917850
 CT2A CG2O3  1  0.347450500075  0.110698234855
 CT2A CG2O4  1  0.329632525712  0.102486650838
 CT2A CG2O5  1  0.347450500075  0.125520000000
 CT2A CG2O6  1  0.347450500075  0.110698234855
 CT2A CG2O7  1  0.308518226092  0.100764063435
 CT2A CG2R51  1  0.356359487256  0.093557084179
 CT2A CG2R52  1  0.365268474438  0.059170695450
 CT2A CG2R53  1  0.365268474438  0.059170695450
 CT2A CG2R57  1  0.356359487256  0.093557084179
 CT2A CG25C1  1  0.355468588538  0.109105371453
 CT2A CG25C2  1  0.355468588538  0.109105371453
 CT2A CG251O  1  0.355468588538  0.109105371453
 CT2A CG252O  1  0.355468588538  0.109105371453
 CT2A CG2R61  1  0.346773417049  0.110698234855
 CT2A CG2R62  1  0.338541512893  0.125520000000
 CT2A CG2R63  1  0.338541512893  0.132309697301
 CT2A CG2R64  1  0.356359487256  0.083680000000
 CT2A CG2R66  1  0.338541512893  0.110698234855
 CT2A CG2R67  1  0.346773417049  0.110698234855
 CT2A CG2RC0  1  0.334977918021  0.131646486622
 CT2A CG2R71  1  0.346987232741  0.108300154755
 CT2A CG2RC7  1  0.334977918021  0.131646486622
 CT2A CG301  1  0.338541512893  0.041840000000
 CT2A CG302  1  0.374177461619  0.059170695450
 CT2A CG311  1  0.338541512893  0.041840000000
 CT2A CG312  1  0.351904993665  0.085746484010
 CT2A CG314  1  0.338541512893  0.041840000000
 CT2A CG321  1  0.338541512893  0.041840000000
 CT2A CG322  1  0.338541512893  0.102486650838
 CT2A CG323  1  0.365268474438  0.138767581228
 CT2A CG324  1  0.338541512893  0.041840000000
 CT2A CG331  1  0.338541512893  0.041840000000
 CT2A CG334  1  0.338541512893  0.041840000000
 CT2A CG3C50  1  0.338541512893  0.041840000000
 CT2A CG3C51  1  0.338541512893  0.041840000000
 CT2A CG3C52  1  0.338541512893  0.041840000000
 CT2A CG3C53  1  0.338541512893  0.041840000000
 CT2A CG3C54  1  0.338541512893  0.041840000000
 CT2A CG3C31  1  0.338541512893  0.041840000000
 CT2A CG3C41  1  0.338541512893  0.041840000000
 CT2A CG3RC1  1  0.338541512893  0.041840000000
 CT2A CG3AM0  1  0.344777803920  0.110698234855
 CT2A CG3AM1  1  0.345668702638  0.116852760686
 CT2A CG3AM2  1  0.346559601357  0.118341390899
 CT2A NG1T1  1  0.328741626994  0.177512086349
 CT2A NG2D1  1  0.334087019303  0.187114168357
 CT2A NG2S0  1  0.334087019303  0.004184000000
 CT2A NG2S1  1  0.307360057758  0.187114168357
 CT2A NG2S2  1  0.334087019303  0.187114168357
 CT2A NG2S3  1  0.334087019303  0.187114168357
 CT2A NG2O1  1  0.334087019303  0.187114168357
 CT2A NG2P1  1  0.334087019303  0.187114168357
 CT2A NG2R43  1  0.334087019303  0.187114168357
 CT2A NG2R50  1  0.334087019303  0.187114168357
 CT2A NG2R51  1  0.334087019303  0.187114168357
 CT2A NG2R52  1  0.334087019303  0.187114168357
 CT2A NG2R53  1  0.334087019303  0.187114168357
 CT2A NG2R57  1  0.334087019303  0.187114168357
 CT2A NG2R60  1  0.337650614175  0.102486650838
 CT2A NG2R61  1  0.334087019303  0.187114168357
 CT2A NG2R62  1  0.352795892384  0.093557084179
 CT2A NG2R67  1  0.334087019303  0.187114168357
 CT2A NG2RC0  1  0.334087019303  0.187114168357
 CT2A NG301  1  0.347450500075  0.078275472531
 CT2A NG311  1  0.347450500075  0.088756043175
 CT2A NG321  1  0.346559601357  0.102486650838
 CT2A NG331  1  0.345668702638  0.110698234855
 CT2A NG3C51  1  0.334087019303  0.187114168357
 CT2A NG3N1  1  0.351904993665  0.102486650838
 CT2A NG3P0  1  0.334087019303  0.187114168357
 CT2A NG3P1  1  0.334087019303  0.187114168357
 CT2A NG3P2  1  0.334087019303  0.187114168357
 CT2A NG3P3  1  0.334087019303  0.187114168357
 CT2A OG2D1  1  0.293996576986  0.144938011577
 CT2A OG2D2  1  0.320723538531  0.144938011577
 CT2A OG2D3  1  0.293996576986  0.144938011577
 CT2A OG2D4  1  0.320723538531  0.144938011577
 CT2A OG2D5  1  0.320010819556  0.169954883425
 CT2A OG2N1  1  0.320723538531  0.144938011577
 CT2A OG2P1  1  0.320723538531  0.144938011577
 CT2A OG2R50  1  0.320723538531  0.144938011577
 CT2A OG3R60  1  0.316269044940  0.132309697301
 CT2A OG301  1  0.316269044940  0.132309697301
 CT2A OG302  1  0.316269044940  0.132309697301
 CT2A OG303  1  0.316269044940  0.132309697301
 CT2A OG304  1  0.316269044940  0.132309697301
 CT2A OG311  1  0.326514380198  0.183381431383
 CT2A OG312  1  0.325178032121  0.144938011577
 CT2A OG3C31  1  0.316269044940  0.132309697301
 CT2A OG3C51  1  0.316269044940  0.132309697301
 CT2A OG3C61  1  0.316269044940  0.132309697301
 CT2A OGTIP3  1  0.326799467788  0.163176000000
 CT2A SG2D1  1  0.351904993665  0.314496560236
 CT2A SG2R50  1  0.347450500075  0.280671252536
 CT2A SG311  1  0.347450500075  0.280671252536
 CT2A SG301  1  0.345223253279  0.257919081884
 CT2A SG302  1  0.365268474438  0.286840588481
 CT2A SG3O1  1  0.356359487256  0.286840588481
 CT2A SG3O2  1  0.347450500075  0.247528778125
 CT2A SG3O3  1  0.347450500075  0.247528778125
 CT2A  FGA1  1  0.314487247504  0.153729976257
 CT2A  FGA2  1  0.314487247504  0.135577095411
 CT2A  FGA3  1  0.311814551349  0.130309939452
 CT2A  FGP1  1  0.311814551349  0.130309939452
 CT2A  FGR1  1  0.320723538531  0.144938011577
 CT2A CLGA1  1  0.339432411611  0.245040988571
 CT2A CLGA3  1  0.339432411611  0.232955260941
 CT2A BRGA1  1  0.344777803920  0.289876023155
 CT2A BRGA2  1  0.351904993665  0.304599797767
 CT2A BRGA3  1  0.347450500075  0.307459952514
 CT2A   SOD  1  0.294954293108  0.090610410351
 CT2A   CLA  1  0.371504765465  0.162045623205
 CT2A   PG0  1  0.360813980847  0.320014464673
 CT2A   PG1  1  0.360813980847  0.320014464673
 CT2A   PG2  1  0.360813980847  0.320014464673
 CT2A  ALG1  1  0.347450500075  0.337324864189
 CT2A   LPH  1  0.169270756447  0.000000000000
 CT2A CLGR1  1  0.334977918021  0.200657590935
 CT2A BRGR1  1  0.345668702638  0.236682781799
 CT2A  IGR1  1  0.368832069310  0.301712530731
 CT2A SG2P1  1  0.355798221064  0.332305491450
 CT2A OG2S1  1  0.318906105146  0.157831660601
 CT2A SG2P2  1  0.352314807076  0.329421919951
 CT2A SEGD1  1  0.363041227642  0.330244580395
 CT2A BG201  1  0.396449929572  0.081561175077
 CT2A CC301  1  0.338541512893  0.041840000000
 CT2A CC3062  1  0.338541512893  0.041840000000
 CT2A CC311  1  0.338541512893  0.041840000000
 CT2A CC3161  1  0.338541512893  0.041840000000
 CT2A CC3162  1  0.338541512893  0.041840000000
 CT2A CC3163  1  0.338541512893  0.041840000000
 CT2A CC321  1  0.338541512893  0.041840000000
 CT2A CC3261  1  0.338541512893  0.041840000000
 CT2A CC3263  1  0.338541512893  0.041840000000
 CT2A CC331  1  0.338541512893  0.041840000000
 CT2A CC2O1  1  0.347450500075  0.138767581228
 CT2A CC2O2  1  0.347450500075  0.110698234855
 CT2A CC2O3  1  0.347450500075  0.125520000000
 CT2A CC2O4  1  0.329632525712  0.102486650838
 CT2A CC2O5  1  0.320723538531  0.130979917850
 CT2A OC2D1  1  0.293996576986  0.144938011577
 CT2A OC2D2  1  0.320723538531  0.144938011577
 CT2A OC2D3  1  0.293996576986  0.144938011577
 CT2A OC2D4  1  0.293996576986  0.144938011577
 CT2A OC3C61  1  0.316269044940  0.132309697301
 CT2A OC311  1  0.326514380198  0.183381431383
 CT2A NC2D1  1  0.307360057758  0.187114168357
 CT2A  HCP1  1  0.189271432669  0.089736802707
 CT2A  HCA1  1  0.288651184677  0.088756043175
 CT2A  HCA2  1  0.288651184677  0.078275472531
 CT2A  HCA3  1  0.288651184677  0.064818249282
 CT2A CC312  1  0.338541512893  0.041840000000
 CT2A CC322  1  0.338541512893  0.041840000000
 CT2A  HCR1  1  0.240542653898  0.089736802707
 CT2A HCA3M  1  0.288651184677  0.064818249282
 CT2A CC321C  1  0.338541512893  0.041840000000
 CT2A CC321D  1  0.338541512893  0.041840000000
 CT2A CC311C  1  0.338541512893  0.041840000000
 CT2A CC311D  1  0.338541512893  0.041840000000
 CT2A OC301  1  0.316269044940  0.132309697301
 CT2A OC302  1  0.316269044940  0.132309697301
 CT2A HCP1M  1  0.189271432669  0.089736802707
 CT2A OC311M  1  0.326514380198  0.183381431383
 CT2A OC3C5M  1  0.316269044940  0.132309697301
 CT2A CC322C  1  0.338541512893  0.041840000000
 CT2A HCA2C2  1  0.285087589805  0.078275472531
 CT2A CC312C  1  0.338541512893  0.041840000000
 CT2A HCA1C2  1  0.288651184677  0.088756043175
 CT2A OC3C51  1  0.316269044940  0.132309697301
 CT2A CC3152  1  0.338541512893  0.041840000000
 CT2A CC3051  1  0.338541512893  0.041840000000
 CT2A CC3251  1  0.338541512893  0.041840000000
 CT2A CC3151  1  0.338541512893  0.041840000000
 CT2A CC3153  1  0.338541512893  0.041840000000
 CT2A OC2DP  1  0.320723538531  0.144938011577
 CT2A OC312  1  0.326959829558  0.163176000000
 CT2A OC30P  1  0.326959829558  0.163176000000
 CT2A    PC  1  0.360813980847  0.320014464673
 CT2A    SC  1  0.356359487256  0.286840588481
 CT2A CC312D  1  0.338541512893  0.041840000000
 CT2A OC303  1  0.316269044940  0.132309697301
 CT2A NC311  1  0.347450500075  0.088756043175
 CT2A   HN1  1  0.189271432669  0.089736802707
 CT2A   HN2  1  0.189271432669  0.089736802707
 CT2A   HN3  1  0.267269615442  0.089736802707
 CT2A   HN4  1  0.189271432669  0.089736802707
 CT2A   HN5  1  0.189271432669  0.089736802707
 CT2A   HN6  1  0.286869387241  0.062058748940
 CT2A   HN7  1  0.286869387241  0.062058748940
 CT2A   HN8  1  0.288651184677  0.070011711020
 CT2A   HN9  1  0.288651184677  0.064818249282
 CT2A   NN1  1  0.334087019303  0.187114168357
 CT2A   NN2  1  0.334087019303  0.187114168357
 CT2A  NN2B  1  0.334087019303  0.187114168357
 CT2A  NN2G  1  0.334087019303  0.187114168357
 CT2A  NN2U  1  0.334087019303  0.187114168357
 CT2A   NN3  1  0.334087019303  0.187114168357
 CT2A  NN3A  1  0.334087019303  0.187114168357
 CT2A  NN3G  1  0.334087019303  0.187114168357
 CT2A   NN4  1  0.334087019303  0.187114168357
 CT2A   NN6  1  0.334087019303  0.187114168357
 CT2A   ON1  1  0.320723538531  0.144938011577
 CT2A  ON1C  1  0.320723538531  0.144938011577
 CT2A   ON2  1  0.326959829558  0.163176000000
 CT2A   ON3  1  0.320723538531  0.144938011577
 CT2A   ON4  1  0.326959829558  0.163176000000
 CT2A   ON5  1  0.326959829558  0.163176000000
 CT2A   ON6  1  0.326959829558  0.163176000000
 CT2A  ON6B  1  0.326959829558  0.163176000000
 CT2A   CN1  1  0.338541512893  0.132309697301
 CT2A  CN1T  1  0.338541512893  0.132309697301
 CT2A   CN2  1  0.338541512893  0.132309697301
 CT2A   CN3  1  0.338541512893  0.125520000000
 CT2A  CN3T  1  0.338541512893  0.125520000000
 CT2A   CN4  1  0.338541512893  0.114583559030
 CT2A   CN5  1  0.338541512893  0.114583559030
 CT2A  CN5G  1  0.338541512893  0.114583559030
 CT2A   CN7  1  0.338541512893  0.041840000000
 CT2A  CN7B  1  0.338541512893  0.041840000000
 CT2A   CN8  1  0.338541512893  0.041840000000
 CT2A  CN8B  1  0.338541512893  0.041840000000
 CT2A   CN9  1  0.338541512893  0.041840000000
 CT2A     P  1  0.360813980847  0.320014464673
 CT2A    P2  1  0.360813980847  0.320014464673
 CT2A    P3  1  0.360813980847  0.320014464673
 CT2A    P4  1  0.360813980847  0.320014464673
 CT2A   HOL  1  0.189271432669  0.089736802707
 CT2A  HAL1  1  0.286869387241  0.062058748940
 CT2A  HAL2  1  0.288651184677  0.070011711020
 CT2A  HAL3  1  0.288651184677  0.064818249282
 CT2A   HBL  1  0.286869387241  0.062058748940
 CT2A   HCL  1  0.189271432669  0.089736802707
 CT2A    HL  1  0.231633666716  0.089736802707
 CT2A  HEL1  1  0.280633096214  0.073666921749
 CT2A  HEL2  1  0.281523994932  0.067464972838
 CT2A    CL  1  0.347450500075  0.110698234855
 CT2A   CCL  1  0.347450500075  0.110698234855
 CT2A  CTL1  1  0.338541512893  0.041840000000
 CT2A  CTL2  1  0.338541512893  0.041840000000
 CT2A  CTL3  1  0.338541512893  0.041840000000
 CT2A  CTL5  1  0.338541512893  0.041840000000
 CT2A  CEL1  1  0.355468588538  0.109105371453
 CT2A  CEL2  1  0.354577689820  0.105847757841
 CT2A  CRL1  1  0.338541512893  0.041840000000
 CT2A  CRL2  1  0.338541512893  0.041840000000
 CT2A   OBL  1  0.293996576986  0.144938011577
 CT2A   OCL  1  0.320723538531  0.144938011577
 CT2A   O2L  1  0.320723538531  0.144938011577
 CT2A   OHL  1  0.326959829558  0.163176000000
 CT2A   OSL  1  0.316269044940  0.132309697301
 CT2A  OSLP  1  0.316269044940  0.132309697301
 CT2A  NH3L  1  0.334087019303  0.187114168357
 CT2A   NTL  1  0.334087019303  0.187114168357
 CT2A    SL  1  0.356359487256  0.286840588481
 CT2A    PL  1  0.360813980847  0.320014464673
 CT2A HCA1A  1  0.288651184677  0.088756043175
 CT2A HCA2A  1  0.288651184677  0.078275472531
 CT2A HCA3A  1  0.288651184677  0.064818249282
 CT2A CC30A  1  0.338541512893  0.041840000000
 CT2A CC31A  1  0.338541512893  0.041840000000
 CT2A CC32A  1  0.338541512893  0.041840000000
 CT2A CC33A  1  0.338541512893  0.041840000000
 CT2A CC326A  1  0.338541512893  0.041840000000
 CT2A HCA25A  1  0.285087589805  0.078275472531
 CT2A CC325A  1  0.338541512893  0.041840000000
 CT2A CC325B  1  0.338541512893  0.041840000000
 CT2A OC305A  1  0.316269044940  0.132309697301
 CT2A OC30A  1  0.316269044940  0.132309697301
 CT2A  HSIO  1  0.189271432669  0.089736802707
 CT2A  HSIA  1  0.286869387241  0.062058748940
 CT2A   HAL  1  0.286869387241  0.062058748940
 CT2A    AL  1  0.365268474438  0.337324864189
 CT2A    SI  1  0.365268474438  0.324091246411
 CT2A  SIH3  1  0.365268474438  0.324091246411
 CT2A  OSIH  1  0.326959829558  0.163176000000
 CT2A  OSIE  1  0.326959829558  0.163176000000
 CT2A  OSIA  1  0.326959829558  0.163176000000
 CT2A   OAL  1  0.326959829558  0.163176000000
 CT2A    HT  1  0.189271432669  0.089736802707
 CT2A    OT  1  0.326799467788  0.163176000000
 CT2A   DUM  1  0.169270756447  0.000000000000
 CT2A    CM  1  0.356359487256  0.138767581228
 CT2A   CPA  1  0.329632525712  0.125520000000
 CT2A   CPB  1  0.329632525712  0.125520000000
 CT2A   CPM  1  0.329632525712  0.125520000000
 CT2A   CST  1  0.308518226092  0.100764063435
 CT2A  CT1X  1  0.338541512893  0.041840000000
 CT2A  CT2X  1  0.338541512893  0.041840000000
 CT2A  CT3X  1  0.338541512893  0.041840000000
 CT2A    HB  1  0.286869387241  0.062058748940
 CT2A   NPH  1  0.334087019303  0.187114168357
 CT2A    OM  1  0.320723538531  0.144938011577
 CT2A   OST  1  0.320010819556  0.169954883425
 CT2A   POT  1  0.326403017859  0.123410269913
 CT2A   CAL  1  0.291056611216  0.144938011577
 CT2A    MG  1  0.274842254546  0.051243325419
 CT2A   CES  1  0.356359487256  0.182376331798
 CT2A    ZN  1  0.266378716724  0.209200000000
 CT2A    FE  1  0.227179173126  0.000000000000
 CT2A    HE  1  0.301123766731  0.061020452073
 CT2A    NE  1  0.305578260322  0.122698965603
 CT2A  CLAL  1  0.339272049842  0.072469005789
 CT2A    AG  1  0.300901042052  0.893457908130
 CT2A    AU  1  0.300722862308  0.962320000000
 CT2A    CU  1  0.285800308779  0.908997471504
 CT2A    NI  1  0.282949432881  0.994525446633
 CT2A    PB  1  0.328073452955  0.716185437439
 CT2A    PD  1  0.294842930769  1.037598257516
 CT2A    PT  1  0.296001099102  1.168527606863
 CT2A   CAP  1  0.346773417049  0.110698234855
 CT2A    FA  1  0.320723538531  0.144938011577
 CT2A    CN  1  0.325178032121  0.187114168357
 CT2A    NC  1  0.334087019303  0.324091246411
 CT2A   OCA  1  0.293996576986  0.144938011577
 CT2A   COA  1  0.347450500075  0.138767581228
 CT2A   CF1  1  0.338541512893  0.102486650838
 CT2A   CF2  1  0.351904993665  0.085746484010
 CT2A   CF3  1  0.374177461619  0.059170695450
 CT2A   HF1  1  0.286869387241  0.070011711020
 CT2A   HF2  1  0.285087589805  0.072469005789
 CT2A    F1  1  0.314487247504  0.153729976257
 CT2A    F2  1  0.314487247504  0.135577095411
 CT2A    F3  1  0.311814551349  0.130309939452
 CT2A    OX  1  0.320723538531  0.144938011577
 CT2A    HX  1  0.189271432669  0.089736802707
 CT2A  HPER  1  0.189271432669  0.089736802707
 CT2A  OPER  1  0.318427692534  0.188901923946
 CT2A   LIT  1  0.284864865125  0.020196198771
 CT2A   RUB  1  0.338541512893  0.162045623205
 CT2A   BAR  1  0.337650614175  0.162045623205
 CT2A   CAD  1  0.290165712498  0.144938011577
 CT2A  ON2B  1  0.326959829558  0.163176000000
 CT2A    SP  1  0.365268474438  0.280671252536
 CT2A   HNP  1  0.290272620344  0.072469005789
 CT2A  HNE1  1  0.280633096214  0.073666921749
 CT2A  HNE2  1  0.281523994932  0.067464972838
 CT2A  CN3D  1  0.338541512893  0.125520000000
 CT2A  CNE1  1  0.355468588538  0.109105371453
 CT2A  CNE2  1  0.354577689820  0.105847757841
 CT2A   CNA  1  0.346773417049  0.110698234855
 CT2A  CNA2  1  0.338541512893  0.110698234855
 CT2A   CNG  1  0.347450500075  0.138767581228
 CT2A  NN1C  1  0.334087019303  0.187114168357
 CT2A  NN2C  1  0.334087019303  0.187114168357
 CT2A  NN3I  1  0.334087019303  0.187114168357
 CT2A   NNG  1  0.334087019303  0.187114168357
 CT2A   FNA  1  0.320723538531  0.144938011577
 CT2A  ON2M  1  0.316269044940  0.132309697301
 CT2A   CN6  1  0.338541512893  0.041840000000
 CT2A  CN7E  1  0.338541512893  0.041840000000
 CT2A  CT2P  1  0.338541512893  0.041840000000
 CT2A  CTD1  1  0.338541512893  0.041840000000
 CT2A  CPD1  1  0.338541512893  0.041840000000
 CT2A  CC1A  1  0.355468588538  0.109105371453
 CT2A  CC1B  1  0.355468588538  0.109105371453
 CT2A   CC2  1  0.354577689820  0.105847757841
 CT2A   NS1  1  0.334087019303  0.187114168357
 CT2A   NS2  1  0.334087019303  0.187114168357
 CT2A   NHL  1  0.307360057758  0.187114168357
 CT2A  CTO1  1  0.338541512893  0.041840000000
 CT2A  CEL3  1  0.355468588538  0.109105371453
 CT2A  CTO2  1  0.338541512893  0.041840000000
 CT2A  HN3B  1  0.249451641079  0.089736802707
 CT2A  CN1A  1  0.347450500075  0.110698234855
 CT2A  CN3A  1  0.329632525712  0.177512086349
 CT2A  CN3B  1  0.329632525712  0.177512086349
 CT2A  CN3C  1  0.329632525712  0.177512086349
  CT3     C  1  0.347450500075  0.138767581228
  CT3    CA  1  0.346773417049  0.110698234855
  CT3    CC  1  0.347450500075  0.110698234855
  CT3    CD  1  0.347450500075  0.110698234855
  CT3   CE1  1  0.355468588538  0.109105371453
  CT3   CE2  1  0.354577689820  0.105847757841
  CT3   CP1  1  0.338541512893  0.041840000000
  CT3   CP2  1  0.338541512893  0.041840000000
  CT3   CP3  1  0.338541512893  0.041840000000
  CT3  CPH1  1  0.329632525712  0.093557084179
  CT3  CPH2  1  0.329632525712  0.093557084179
  CT3    CS  1  0.365268474438  0.138767581228
  CT3   CPT  1  0.334977918021  0.131646486622
  CT3    CY  1  0.346559601357  0.113045454929
  CT3   CAI  1  0.346559601357  0.113045454929
  CT3    CT  1  0.338541512893  0.041840000000
  CT3   CT1  1  0.338541512893  0.041840000000
  CT3   CT2  1  0.338541512893  0.041840000000
  CT3  CT2A  1  0.338541512893  0.041840000000
  CT3   CT3  1  0.338541512893  0.041840000000
  CT3    C3  1  0.371950214824  0.059170695450
  CT3     H  1  0.189271432669  0.089736802707
  CT3    HA  1  0.286869387241  0.062058748940
  CT3   HB1  1  0.286869387241  0.062058748940
  CT3   HB2  1  0.288651184677  0.070011711020
  CT3   HE1  1  0.280633096214  0.073666921749
  CT3   HE2  1  0.281523994932  0.067464972838
  CT3    HC  1  0.189271432669  0.089736802707
  CT3    HP  1  0.290272620344  0.072469005789
  CT3   HR1  1  0.249451641079  0.089736802707
  CT3   HR2  1  0.231633666716  0.089736802707
  CT3   HR3  1  0.300054688270  0.036952087465
  CT3    HS  1  0.209361198763  0.132309697301
  CT3   HA1  1  0.288651184677  0.088756043175
  CT3   HA2  1  0.288651184677  0.077149148019
  CT3   HA3  1  0.288651184677  0.064818249282
  CT3     N  1  0.334087019303  0.004184000000
  CT3   NC2  1  0.334087019303  0.187114168357
  CT3   NH1  1  0.307360057758  0.187114168357
  CT3   NH2  1  0.334087019303  0.187114168357
  CT3   NH3  1  0.334087019303  0.187114168357
  CT3    NP  1  0.334087019303  0.187114168357
  CT3   NR1  1  0.334087019303  0.187114168357
  CT3   NR2  1  0.334087019303  0.187114168357
  CT3   NR3  1  0.334087019303  0.187114168357
  CT3    NY  1  0.334087019303  0.187114168357
  CT3     O  1  0.293996576986  0.144938011577
  CT3    OB  1  0.293996576986  0.144938011577
  CT3    OC  1  0.320723538531  0.144938011577
  CT3   OH1  1  0.326959829558  0.163176000000
  CT3    OS  1  0.326959829558  0.163176000000
  CT3     S  1  0.347450500075  0.280671252536
  CT3    SM  1  0.345223253279  0.257919081884
  CT3    SS  1  0.365268474438  0.286840588481
  CT3  HGA1  1  0.288651184677  0.088756043175
  CT3  HGA2  1  0.288651184677  0.078275472531
  CT3  HGA3  1  0.288651184677  0.064818249282
  CT3  HGA4  1  0.280633096214  0.073666921749
  CT3  HGA5  1  0.281523994932  0.067464972838
  CT3  HGA6  1  0.286869387241  0.070011711020
  CT3  HGA7  1  0.285087589805  0.072469005789
  CT3 HGAAM0  1  0.283305792369  0.070011711020
  CT3 HGAAM1  1  0.283305792369  0.070011711020
  CT3 HGAAM2  1  0.281523994932  0.083680000000
  CT3  HGP1  1  0.189271432669  0.089736802707
  CT3  HGP2  1  0.189271432669  0.089736802707
  CT3  HGP3  1  0.209361198763  0.132309697301
  CT3  HGP4  1  0.189271432669  0.089736802707
  CT3  HGP5  1  0.231633666716  0.089736802707
  CT3 HGPAM1  1  0.247224394284  0.039692909190
  CT3 HGPAM2  1  0.247224394284  0.041840000000
  CT3 HGPAM3  1  0.246778944925  0.045833423612
  CT3 HGR51  1  0.290272620344  0.072469005789
  CT3 HGR52  1  0.249451641079  0.089736802707
  CT3 HGR53  1  0.231633666716  0.089736802707
  CT3 HGR61  1  0.290272620344  0.072469005789
  CT3 HGR62  1  0.267269615442  0.089736802707
  CT3 HGR63  1  0.249451641079  0.089736802707
  CT3 HGR71  1  0.290272620344  0.072469005789
  CT3 HGTIP3  1  0.189271432669  0.089736802707
  CT3 CG1T1  1  0.333196120584  0.170981810495
  CT3 CG1T2  1  0.346782326036  0.134409982486
  CT3 CG1N1  1  0.335868816739  0.177512086349
  CT3 CG2D1  1  0.355468588538  0.109105371453
  CT3 CG2D2  1  0.354577689820  0.105847757841
  CT3 CG2D1O  1  0.355468588538  0.109105371453
  CT3 CG2D2O  1  0.355468588538  0.109105371453
  CT3 CG2DC1  1  0.355468588538  0.109105371453
  CT3 CG2DC2  1  0.355468588538  0.109105371453
  CT3 CG2DC3  1  0.354577689820  0.105847757841
  CT3 CG2N1  1  0.347450500075  0.138767581228
  CT3 CG2N2  1  0.347450500075  0.138767581228
  CT3 CG2O1  1  0.347450500075  0.138767581228
  CT3 CG2O2  1  0.320723538531  0.130979917850
  CT3 CG2O3  1  0.347450500075  0.110698234855
  CT3 CG2O4  1  0.329632525712  0.102486650838
  CT3 CG2O5  1  0.347450500075  0.125520000000
  CT3 CG2O6  1  0.347450500075  0.110698234855
  CT3 CG2O7  1  0.308518226092  0.100764063435
  CT3 CG2R51  1  0.356359487256  0.093557084179
  CT3 CG2R52  1  0.365268474438  0.059170695450
  CT3 CG2R53  1  0.365268474438  0.059170695450
  CT3 CG2R57  1  0.356359487256  0.093557084179
  CT3 CG25C1  1  0.355468588538  0.109105371453
  CT3 CG25C2  1  0.355468588538  0.109105371453
  CT3 CG251O  1  0.355468588538  0.109105371453
  CT3 CG252O  1  0.355468588538  0.109105371453
  CT3 CG2R61  1  0.346773417049  0.110698234855
  CT3 CG2R62  1  0.338541512893  0.125520000000
  CT3 CG2R63  1  0.338541512893  0.132309697301
  CT3 CG2R64  1  0.356359487256  0.083680000000
  CT3 CG2R66  1  0.338541512893  0.110698234855
  CT3 CG2R67  1  0.346773417049  0.110698234855
  CT3 CG2RC0  1  0.334977918021  0.131646486622
  CT3 CG2R71  1  0.346987232741  0.108300154755
  CT3 CG2RC7  1  0.334977918021  0.131646486622
  CT3 CG301  1  0.338541512893  0.041840000000
  CT3 CG302  1  0.374177461619  0.059170695450
  CT3 CG311  1  0.338541512893  0.041840000000
  CT3 CG312  1  0.351904993665  0.085746484010
  CT3 CG314  1  0.338541512893  0.041840000000
  CT3 CG321  1  0.338541512893  0.041840000000
  CT3 CG322  1  0.338541512893  0.102486650838
  CT3 CG323  1  0.365268474438  0.138767581228
  CT3 CG324  1  0.338541512893  0.041840000000
  CT3 CG331  1  0.338541512893  0.041840000000
  CT3 CG334  1  0.338541512893  0.041840000000
  CT3 CG3C50  1  0.338541512893  0.041840000000
  CT3 CG3C51  1  0.338541512893  0.041840000000
  CT3 CG3C52  1  0.338541512893  0.041840000000
  CT3 CG3C53  1  0.338541512893  0.041840000000
  CT3 CG3C54  1  0.338541512893  0.041840000000
  CT3 CG3C31  1  0.338541512893  0.041840000000
  CT3 CG3C41  1  0.338541512893  0.041840000000
  CT3 CG3RC1  1  0.338541512893  0.041840000000
  CT3 CG3AM0  1  0.344777803920  0.110698234855
  CT3 CG3AM1  1  0.345668702638  0.116852760686
  CT3 CG3AM2  1  0.346559601357  0.118341390899
  CT3 NG1T1  1  0.328741626994  0.177512086349
  CT3 NG2D1  1  0.334087019303  0.187114168357
  CT3 NG2S0  1  0.334087019303  0.004184000000
  CT3 NG2S1  1  0.307360057758  0.187114168357
  CT3 NG2S2  1  0.334087019303  0.187114168357
  CT3 NG2S3  1  0.334087019303  0.187114168357
  CT3 NG2O1  1  0.334087019303  0.187114168357
  CT3 NG2P1  1  0.334087019303  0.187114168357
  CT3 NG2R43  1  0.334087019303  0.187114168357
  CT3 NG2R50  1  0.334087019303  0.187114168357
  CT3 NG2R51  1  0.334087019303  0.187114168357
  CT3 NG2R52  1  0.334087019303  0.187114168357
  CT3 NG2R53  1  0.334087019303  0.187114168357
  CT3 NG2R57  1  0.334087019303  0.187114168357
  CT3 NG2R60  1  0.337650614175  0.102486650838
  CT3 NG2R61  1  0.334087019303  0.187114168357
  CT3 NG2R62  1  0.352795892384  0.093557084179
  CT3 NG2R67  1  0.334087019303  0.187114168357
  CT3 NG2RC0  1  0.334087019303  0.187114168357
  CT3 NG301  1  0.347450500075  0.078275472531
  CT3 NG311  1  0.347450500075  0.088756043175
  CT3 NG321  1  0.346559601357  0.102486650838
  CT3 NG331  1  0.345668702638  0.110698234855
  CT3 NG3C51  1  0.334087019303  0.187114168357
  CT3 NG3N1  1  0.351904993665  0.102486650838
  CT3 NG3P0  1  0.334087019303  0.187114168357
  CT3 NG3P1  1  0.334087019303  0.187114168357
  CT3 NG3P2  1  0.334087019303  0.187114168357
  CT3 NG3P3  1  0.334087019303  0.187114168357
  CT3 OG2D1  1  0.293996576986  0.144938011577
  CT3 OG2D2  1  0.320723538531  0.144938011577
  CT3 OG2D3  1  0.293996576986  0.144938011577
  CT3 OG2D4  1  0.320723538531  0.144938011577
  CT3 OG2D5  1  0.320010819556  0.169954883425
  CT3 OG2N1  1  0.320723538531  0.144938011577
  CT3 OG2P1  1  0.320723538531  0.144938011577
  CT3 OG2R50  1  0.320723538531  0.144938011577
  CT3 OG3R60  1  0.316269044940  0.132309697301
  CT3 OG301  1  0.316269044940  0.132309697301
  CT3 OG302  1  0.316269044940  0.132309697301
  CT3 OG303  1  0.316269044940  0.132309697301
  CT3 OG304  1  0.316269044940  0.132309697301
  CT3 OG311  1  0.326514380198  0.183381431383
  CT3 OG312  1  0.325178032121  0.144938011577
  CT3 OG3C31  1  0.316269044940  0.132309697301
  CT3 OG3C51  1  0.316269044940  0.132309697301
  CT3 OG3C61  1  0.316269044940  0.132309697301
  CT3 OGTIP3  1  0.326799467788  0.163176000000
  CT3 SG2D1  1  0.351904993665  0.314496560236
  CT3 SG2R50  1  0.347450500075  0.280671252536
  CT3 SG311  1  0.347450500075  0.280671252536
  CT3 SG301  1  0.345223253279  0.257919081884
  CT3 SG302  1  0.365268474438  0.286840588481
  CT3 SG3O1  1  0.356359487256  0.286840588481
  CT3 SG3O2  1  0.347450500075  0.247528778125
  CT3 SG3O3  1  0.347450500075  0.247528778125
  CT3  FGA1  1  0.314487247504  0.153729976257
  CT3  FGA2  1  0.314487247504  0.135577095411
  CT3  FGA3  1  0.311814551349  0.130309939452
  CT3  FGP1  1  0.311814551349  0.130309939452
  CT3  FGR1  1  0.320723538531  0.144938011577
  CT3 CLGA1  1  0.339432411611  0.245040988571
  CT3 CLGA3  1  0.339432411611  0.232955260941
  CT3 BRGA1  1  0.344777803920  0.289876023155
  CT3 BRGA2  1  0.351904993665  0.304599797767
  CT3 BRGA3  1  0.347450500075  0.307459952514
  CT3   SOD  1  0.294954293108  0.090610410351
  CT3   CLA  1  0.371504765465  0.162045623205
  CT3   PG0  1  0.360813980847  0.320014464673
  CT3   PG1  1  0.360813980847  0.320014464673
  CT3   PG2  1  0.360813980847  0.320014464673
  CT3  ALG1  1  0.347450500075  0.337324864189
  CT3   LPH  1  0.169270756447  0.000000000000
  CT3 CLGR1  1  0.334977918021  0.200657590935
  CT3 BRGR1  1  0.345668702638  0.236682781799
  CT3  IGR1  1  0.368832069310  0.301712530731
  CT3 SG2P1  1  0.355798221064  0.332305491450
  CT3 OG2S1  1  0.318906105146  0.157831660601
  CT3 SG2P2  1  0.352314807076  0.329421919951
  CT3 SEGD1  1  0.363041227642  0.330244580395
  CT3 BG201  1  0.396449929572  0.081561175077
  CT3 CC301  1  0.338541512893  0.041840000000
  CT3 CC3062  1  0.338541512893  0.041840000000
  CT3 CC311  1  0.338541512893  0.041840000000
  CT3 CC3161  1  0.338541512893  0.041840000000
  CT3 CC3162  1  0.338541512893  0.041840000000
  CT3 CC3163  1  0.338541512893  0.041840000000
  CT3 CC321  1  0.338541512893  0.041840000000
  CT3 CC3261  1  0.338541512893  0.041840000000
  CT3 CC3263  1  0.338541512893  0.041840000000
  CT3 CC331  1  0.338541512893  0.041840000000
  CT3 CC2O1  1  0.347450500075  0.138767581228
  CT3 CC2O2  1  0.347450500075  0.110698234855
  CT3 CC2O3  1  0.347450500075  0.125520000000
  CT3 CC2O4  1  0.329632525712  0.102486650838
  CT3 CC2O5  1  0.320723538531  0.130979917850
  CT3 OC2D1  1  0.293996576986  0.144938011577
  CT3 OC2D2  1  0.320723538531  0.144938011577
  CT3 OC2D3  1  0.293996576986  0.144938011577
  CT3 OC2D4  1  0.293996576986  0.144938011577
  CT3 OC3C61  1  0.316269044940  0.132309697301
  CT3 OC311  1  0.326514380198  0.183381431383
  CT3 NC2D1  1  0.307360057758  0.187114168357
  CT3  HCP1  1  0.189271432669  0.089736802707
  CT3  HCA1  1  0.288651184677  0.088756043175
  CT3  HCA2  1  0.288651184677  0.078275472531
  CT3  HCA3  1  0.288651184677  0.064818249282
  CT3 CC312  1  0.338541512893  0.041840000000
  CT3 CC322  1  0.338541512893  0.041840000000
  CT3  HCR1  1  0.240542653898  0.089736802707
  CT3 HCA3M  1  0.288651184677  0.064818249282
  CT3 CC321C  1  0.338541512893  0.041840000000
  CT3 CC321D  1  0.338541512893  0.041840000000
  CT3 CC311C  1  0.338541512893  0.041840000000
  CT3 CC311D  1  0.338541512893  0.041840000000
  CT3 OC301  1  0.316269044940  0.132309697301
  CT3 OC302  1  0.316269044940  0.132309697301
  CT3 HCP1M  1  0.189271432669  0.089736802707
  CT3 OC311M  1  0.326514380198  0.183381431383
  CT3 OC3C5M  1  0.316269044940  0.132309697301
  CT3 CC322C  1  0.338541512893  0.041840000000
  CT3 HCA2C2  1  0.285087589805  0.078275472531
  CT3 CC312C  1  0.338541512893  0.041840000000
  CT3 HCA1C2  1  0.288651184677  0.088756043175
  CT3 OC3C51  1  0.316269044940  0.132309697301
  CT3 CC3152  1  0.338541512893  0.041840000000
  CT3 CC3051  1  0.338541512893  0.041840000000
  CT3 CC3251  1  0.338541512893  0.041840000000
  CT3 CC3151  1  0.338541512893  0.041840000000
  CT3 CC3153  1  0.338541512893  0.041840000000
  CT3 OC2DP  1  0.320723538531  0.144938011577
  CT3 OC312  1  0.326959829558  0.163176000000
  CT3 OC30P  1  0.326959829558  0.163176000000
  CT3    PC  1  0.360813980847  0.320014464673
  CT3    SC  1  0.356359487256  0.286840588481
  CT3 CC312D  1  0.338541512893  0.041840000000
  CT3 OC303  1  0.316269044940  0.132309697301
  CT3 NC311  1  0.347450500075  0.088756043175
  CT3   HN1  1  0.189271432669  0.089736802707
  CT3   HN2  1  0.189271432669  0.089736802707
  CT3   HN3  1  0.267269615442  0.089736802707
  CT3   HN4  1  0.189271432669  0.089736802707
  CT3   HN5  1  0.189271432669  0.089736802707
  CT3   HN6  1  0.286869387241  0.062058748940
  CT3   HN7  1  0.286869387241  0.062058748940
  CT3   HN8  1  0.288651184677  0.070011711020
  CT3   HN9  1  0.288651184677  0.064818249282
  CT3   NN1  1  0.334087019303  0.187114168357
  CT3   NN2  1  0.334087019303  0.187114168357
  CT3  NN2B  1  0.334087019303  0.187114168357
  CT3  NN2G  1  0.334087019303  0.187114168357
  CT3  NN2U  1  0.334087019303  0.187114168357
  CT3   NN3  1  0.334087019303  0.187114168357
  CT3  NN3A  1  0.334087019303  0.187114168357
  CT3  NN3G  1  0.334087019303  0.187114168357
  CT3   NN4  1  0.334087019303  0.187114168357
  CT3   NN6  1  0.334087019303  0.187114168357
  CT3   ON1  1  0.320723538531  0.144938011577
  CT3  ON1C  1  0.320723538531  0.144938011577
  CT3   ON2  1  0.326959829558  0.163176000000
  CT3   ON3  1  0.320723538531  0.144938011577
  CT3   ON4  1  0.326959829558  0.163176000000
  CT3   ON5  1  0.326959829558  0.163176000000
  CT3   ON6  1  0.326959829558  0.163176000000
  CT3  ON6B  1  0.326959829558  0.163176000000
  CT3   CN1  1  0.338541512893  0.132309697301
  CT3  CN1T  1  0.338541512893  0.132309697301
  CT3   CN2  1  0.338541512893  0.132309697301
  CT3   CN3  1  0.338541512893  0.125520000000
  CT3  CN3T  1  0.338541512893  0.125520000000
  CT3   CN4  1  0.338541512893  0.114583559030
  CT3   CN5  1  0.338541512893  0.114583559030
  CT3  CN5G  1  0.338541512893  0.114583559030
  CT3   CN7  1  0.338541512893  0.041840000000
  CT3  CN7B  1  0.338541512893  0.041840000000
  CT3   CN8  1  0.338541512893  0.041840000000
  CT3  CN8B  1  0.338541512893  0.041840000000
  CT3   CN9  1  0.338541512893  0.041840000000
  CT3     P  1  0.360813980847  0.320014464673
  CT3    P2  1  0.360813980847  0.320014464673
  CT3    P3  1  0.360813980847  0.320014464673
  CT3    P4  1  0.360813980847  0.320014464673
  CT3   HOL  1  0.189271432669  0.089736802707
  CT3  HAL1  1  0.286869387241  0.062058748940
  CT3  HAL2  1  0.288651184677  0.070011711020
  CT3  HAL3  1  0.288651184677  0.064818249282
  CT3   HBL  1  0.286869387241  0.062058748940
  CT3   HCL  1  0.189271432669  0.089736802707
  CT3    HL  1  0.231633666716  0.089736802707
  CT3  HEL1  1  0.280633096214  0.073666921749
  CT3  HEL2  1  0.281523994932  0.067464972838
  CT3    CL  1  0.347450500075  0.110698234855
  CT3   CCL  1  0.347450500075  0.110698234855
  CT3  CTL1  1  0.338541512893  0.041840000000
  CT3  CTL2  1  0.338541512893  0.041840000000
  CT3  CTL3  1  0.338541512893  0.041840000000
  CT3  CTL5  1  0.338541512893  0.041840000000
  CT3  CEL1  1  0.355468588538  0.109105371453
  CT3  CEL2  1  0.354577689820  0.105847757841
  CT3  CRL1  1  0.338541512893  0.041840000000
  CT3  CRL2  1  0.338541512893  0.041840000000
  CT3   OBL  1  0.293996576986  0.144938011577
  CT3   OCL  1  0.320723538531  0.144938011577
  CT3   O2L  1  0.320723538531  0.144938011577
  CT3   OHL  1  0.326959829558  0.163176000000
  CT3   OSL  1  0.316269044940  0.132309697301
  CT3  OSLP  1  0.316269044940  0.132309697301
  CT3  NH3L  1  0.334087019303  0.187114168357
  CT3   NTL  1  0.334087019303  0.187114168357
  CT3    SL  1  0.356359487256  0.286840588481
  CT3    PL  1  0.360813980847  0.320014464673
  CT3 HCA1A  1  0.288651184677  0.088756043175
  CT3 HCA2A  1  0.288651184677  0.078275472531
  CT3 HCA3A  1  0.288651184677  0.064818249282
  CT3 CC30A  1  0.338541512893  0.041840000000
  CT3 CC31A  1  0.338541512893  0.041840000000
  CT3 CC32A  1  0.338541512893  0.041840000000
  CT3 CC33A  1  0.338541512893  0.041840000000
  CT3 CC326A  1  0.338541512893  0.041840000000
  CT3 HCA25A  1  0.285087589805  0.078275472531
  CT3 CC325A  1  0.338541512893  0.041840000000
  CT3 CC325B  1  0.338541512893  0.041840000000
  CT3 OC305A  1  0.316269044940  0.132309697301
  CT3 OC30A  1  0.316269044940  0.132309697301
  CT3  HSIO  1  0.189271432669  0.089736802707
  CT3  HSIA  1  0.286869387241  0.062058748940
  CT3   HAL  1  0.286869387241  0.062058748940
  CT3    AL  1  0.365268474438  0.337324864189
  CT3    SI  1  0.365268474438  0.324091246411
  CT3  SIH3  1  0.365268474438  0.324091246411
  CT3  OSIH  1  0.326959829558  0.163176000000
  CT3  OSIE  1  0.326959829558  0.163176000000
  CT3  OSIA  1  0.326959829558  0.163176000000
  CT3   OAL  1  0.326959829558  0.163176000000
  CT3    HT  1  0.189271432669  0.089736802707
  CT3    OT  1  0.326799467788  0.163176000000
  CT3   DUM  1  0.169270756447  0.000000000000
  CT3    CM  1  0.356359487256  0.138767581228
  CT3   CPA  1  0.329632525712  0.125520000000
  CT3   CPB  1  0.329632525712  0.125520000000
  CT3   CPM  1  0.329632525712  0.125520000000
  CT3   CST  1  0.308518226092  0.100764063435
  CT3  CT1X  1  0.338541512893  0.041840000000
  CT3  CT2X  1  0.338541512893  0.041840000000
  CT3  CT3X  1  0.338541512893  0.041840000000
  CT3    HB  1  0.286869387241  0.062058748940
  CT3   NPH  1  0.334087019303  0.187114168357
  CT3    OM  1  0.320723538531  0.144938011577
  CT3   OST  1  0.320010819556  0.169954883425
  CT3   POT  1  0.326403017859  0.123410269913
  CT3   CAL  1  0.291056611216  0.144938011577
  CT3    MG  1  0.274842254546  0.051243325419
  CT3   CES  1  0.356359487256  0.182376331798
  CT3    ZN  1  0.266378716724  0.209200000000
  CT3    FE  1  0.227179173126  0.000000000000
  CT3    HE  1  0.301123766731  0.061020452073
  CT3    NE  1  0.305578260322  0.122698965603
  CT3  CLAL  1  0.339272049842  0.072469005789
  CT3    AG  1  0.300901042052  0.893457908130
  CT3    AU  1  0.300722862308  0.962320000000
  CT3    CU  1  0.285800308779  0.908997471504
  CT3    NI  1  0.282949432881  0.994525446633
  CT3    PB  1  0.328073452955  0.716185437439
  CT3    PD  1  0.294842930769  1.037598257516
  CT3    PT  1  0.296001099102  1.168527606863
  CT3   CAP  1  0.346773417049  0.110698234855
  CT3    FA  1  0.320723538531  0.144938011577
  CT3    CN  1  0.325178032121  0.187114168357
  CT3    NC  1  0.334087019303  0.324091246411
  CT3   OCA  1  0.293996576986  0.144938011577
  CT3   COA  1  0.347450500075  0.138767581228
  CT3   CF1  1  0.338541512893  0.102486650838
  CT3   CF2  1  0.351904993665  0.085746484010
  CT3   CF3  1  0.374177461619  0.059170695450
  CT3   HF1  1  0.286869387241  0.070011711020
  CT3   HF2  1  0.285087589805  0.072469005789
  CT3    F1  1  0.314487247504  0.153729976257
  CT3    F2  1  0.314487247504  0.135577095411
  CT3    F3  1  0.311814551349  0.130309939452
  CT3    OX  1  0.320723538531  0.144938011577
  CT3    HX  1  0.189271432669  0.089736802707
  CT3  HPER  1  0.189271432669  0.089736802707
  CT3  OPER  1  0.318427692534  0.188901923946
  CT3   LIT  1  0.284864865125  0.020196198771
  CT3   RUB  1  0.338541512893  0.162045623205
  CT3   BAR  1  0.337650614175  0.162045623205
  CT3   CAD  1  0.290165712498  0.144938011577
  CT3  ON2B  1  0.326959829558  0.163176000000
  CT3    SP  1  0.365268474438  0.280671252536
  CT3   HNP  1  0.290272620344  0.072469005789
  CT3  HNE1  1  0.280633096214  0.073666921749
  CT3  HNE2  1  0.281523994932  0.067464972838
  CT3  CN3D  1  0.338541512893  0.125520000000
  CT3  CNE1  1  0.355468588538  0.109105371453
  CT3  CNE2  1  0.354577689820  0.105847757841
  CT3   CNA  1  0.346773417049  0.110698234855
  CT3  CNA2  1  0.338541512893  0.110698234855
  CT3   CNG  1  0.347450500075  0.138767581228
  CT3  NN1C  1  0.334087019303  0.187114168357
  CT3  NN2C  1  0.334087019303  0.187114168357
  CT3  NN3I  1  0.334087019303  0.187114168357
  CT3   NNG  1  0.334087019303  0.187114168357
  CT3   FNA  1  0.320723538531  0.144938011577
  CT3  ON2M  1  0.316269044940  0.132309697301
  CT3   CN6  1  0.338541512893  0.041840000000
  CT3  CN7E  1  0.338541512893  0.041840000000
  CT3  CT2P  1  0.338541512893  0.041840000000
  CT3  CTD1  1  0.338541512893  0.041840000000
  CT3  CPD1  1  0.338541512893  0.041840000000
  CT3  CC1A  1  0.355468588538  0.109105371453
  CT3  CC1B  1  0.355468588538  0.109105371453
  CT3   CC2  1  0.354577689820  0.105847757841
  CT3   NS1  1  0.334087019303  0.187114168357
  CT3   NS2  1  0.334087019303  0.187114168357
  CT3   NHL  1  0.307360057758  0.187114168357
  CT3  CTO1  1  0.338541512893  0.041840000000
  CT3  CEL3  1  0.355468588538  0.109105371453
  CT3  CTO2  1  0.338541512893  0.041840000000
  CT3  HN3B  1  0.249451641079  0.089736802707
  CT3  CN1A  1  0.347450500075  0.110698234855
  CT3  CN3A  1  0.329632525712  0.177512086349
  CT3  CN3B  1  0.329632525712  0.177512086349
  CT3  CN3C  1  0.329632525712  0.177512086349
   HP     C  1  0.299181607526  0.240352501131
   HP    CA  1  0.298504524500  0.191734967077
   HP    CC  1  0.299181607526  0.191734967077
   HP    CD  1  0.299181607526  0.191734967077
   HP   CE1  1  0.307199695989  0.188976046736
   HP   CE2  1  0.306308797271  0.183333694448
   HP   CP1  1  0.290272620344  0.072469005789
   HP   CP2  1  0.290272620344  0.072469005789
   HP   CP3  1  0.290272620344  0.072469005789
   HP  CPH1  1  0.281363633163  0.162045623205
   HP  CPH2  1  0.281363633163  0.162045623205
   HP    CS  1  0.316999581889  0.240352501131
   HP   CPT  1  0.286709025472  0.228018403468
   HP    CY  1  0.298290708808  0.195800471501
   HP   CAI  1  0.298290708808  0.195800471501
   HP    CT  1  0.290272620344  0.072469005789
   HP   CT1  1  0.290272620344  0.072469005789
   HP   CT2  1  0.290272620344  0.072469005789
   HP  CT2A  1  0.290272620344  0.072469005789
   HP   CT3  1  0.290272620344  0.072469005789
   HP    C3  1  0.323681322275  0.102486650838
   HP     H  1  0.141002540120  0.155428701597
   HP    HA  1  0.238600494692  0.107488906218
   HP   HB1  1  0.238600494692  0.107488906218
   HP   HB2  1  0.240382292129  0.121263840612
   HP   HE1  1  0.232364203665  0.127594851307
   HP   HE2  1  0.233255102384  0.116852760686
   HP    HC  1  0.141002540120  0.155428701597
   HP    HP  1  0.242003727796  0.125520000000
   HP   HR1  1  0.201182748530  0.155428701597
   HP   HR2  1  0.183364774168  0.155428701597
   HP   HR3  1  0.251785795721  0.064002892935
   HP    HS  1  0.161092306214  0.229167118060
   HP   HA1  1  0.240382292129  0.153729976257
   HP   HA2  1  0.240382292129  0.133626244129
   HP   HA3  1  0.240382292129  0.112268501014
   HP     N  1  0.285818126754  0.007246900579
   HP   NC2  1  0.285818126754  0.324091246411
   HP   NH1  1  0.259091165210  0.324091246411
   HP   NH2  1  0.285818126754  0.324091246411
   HP   NH3  1  0.285818126754  0.324091246411
   HP    NP  1  0.285818126754  0.324091246411
   HP   NR1  1  0.285818126754  0.324091246411
   HP   NR2  1  0.285818126754  0.324091246411
   HP   NR3  1  0.285818126754  0.324091246411
   HP    NY  1  0.285818126754  0.324091246411
   HP     O  1  0.245727684437  0.251040000000
   HP    OB  1  0.245727684437  0.251040000000
   HP    OC  1  0.272454645982  0.251040000000
   HP   OH1  1  0.278690937009  0.282629122576
   HP    OS  1  0.278690937009  0.282629122576
   HP     S  1  0.299181607526  0.486136869616
   HP    SM  1  0.296954360731  0.446728954065
   HP    SS  1  0.316999581889  0.496822472922
   HP  HGA1  1  0.240382292129  0.153729976257
   HP  HGA2  1  0.240382292129  0.135577095411
   HP  HGA3  1  0.240382292129  0.112268501014
   HP  HGA4  1  0.232364203665  0.127594851307
   HP  HGA5  1  0.233255102384  0.116852760686
   HP  HGA6  1  0.238600494692  0.121263840612
   HP  HGA7  1  0.236818697256  0.125520000000
   HP HGAAM0  1  0.235036899820  0.121263840612
   HP HGAAM1  1  0.235036899820  0.121263840612
   HP HGAAM2  1  0.233255102384  0.144938011577
   HP  HGP1  1  0.141002540120  0.155428701597
   HP  HGP2  1  0.141002540120  0.155428701597
   HP  HGP3  1  0.161092306214  0.229167118060
   HP  HGP4  1  0.141002540120  0.155428701597
   HP  HGP5  1  0.183364774168  0.155428701597
   HP HGPAM1  1  0.198955501735  0.068750135418
   HP HGPAM2  1  0.198955501735  0.072469005789
   HP HGPAM3  1  0.198510052376  0.079385818381
   HP HGR51  1  0.242003727796  0.125520000000
   HP HGR52  1  0.201182748530  0.155428701597
   HP HGR53  1  0.183364774168  0.155428701597
   HP HGR61  1  0.242003727796  0.125520000000
   HP HGR62  1  0.219000722893  0.155428701597
   HP HGR63  1  0.201182748530  0.155428701597
   HP HGR71  1  0.242003727796  0.125520000000
   HP HGTIP3  1  0.141002540120  0.155428701597
   HP CG1T1  1  0.284927228036  0.296149182947
   HP CG1T2  1  0.298513433487  0.232804918711
   HP CG1N1  1  0.287599924190  0.307459952514
   HP CG2D1  1  0.307199695989  0.188976046736
   HP CG2D2  1  0.306308797271  0.183333694448
   HP CG2D1O  1  0.307199695989  0.188976046736
   HP CG2D2O  1  0.307199695989  0.188976046736
   HP CG2DC1  1  0.307199695989  0.188976046736
   HP CG2DC2  1  0.307199695989  0.188976046736
   HP CG2DC3  1  0.306308797271  0.183333694448
   HP CG2N1  1  0.299181607526  0.240352501131
   HP CG2N2  1  0.299181607526  0.240352501131
   HP CG2O1  1  0.299181607526  0.240352501131
   HP CG2O2  1  0.272454645982  0.226863872487
   HP CG2O3  1  0.299181607526  0.191734967077
   HP CG2O4  1  0.281363633163  0.177512086349
   HP CG2O5  1  0.299181607526  0.217407017366
   HP CG2O6  1  0.299181607526  0.191734967077
   HP CG2O7  1  0.260249333543  0.174528477447
   HP CG2R51  1  0.308090594707  0.162045623205
   HP CG2R52  1  0.316999581889  0.102486650838
   HP CG2R53  1  0.316999581889  0.102486650838
   HP CG2R57  1  0.308090594707  0.162045623205
   HP CG25C1  1  0.307199695989  0.188976046736
   HP CG25C2  1  0.307199695989  0.188976046736
   HP CG251O  1  0.307199695989  0.188976046736
   HP CG252O  1  0.307199695989  0.188976046736
   HP CG2R61  1  0.298504524500  0.191734967077
   HP CG2R62  1  0.290272620344  0.217407017366
   HP CG2R63  1  0.290272620344  0.229167118060
   HP CG2R64  1  0.308090594707  0.144938011577
   HP CG2R66  1  0.290272620344  0.191734967077
   HP CG2R67  1  0.298504524500  0.191734967077
   HP CG2RC0  1  0.286709025472  0.228018403468
   HP CG2R71  1  0.298718340192  0.187581370504
   HP CG2RC7  1  0.286709025472  0.228018403468
   HP CG301  1  0.290272620344  0.072469005789
   HP CG302  1  0.325908569070  0.102486650838
   HP CG311  1  0.290272620344  0.072469005789
   HP CG312  1  0.303636101117  0.148517266875
   HP CG314  1  0.290272620344  0.072469005789
   HP CG321  1  0.290272620344  0.072469005789
   HP CG322  1  0.290272620344  0.177512086349
   HP CG323  1  0.316999581889  0.240352501131
   HP CG324  1  0.290272620344  0.072469005789
   HP CG331  1  0.290272620344  0.072469005789
   HP CG334  1  0.290272620344  0.072469005789
   HP CG3C50  1  0.290272620344  0.072469005789
   HP CG3C51  1  0.290272620344  0.072469005789
   HP CG3C52  1  0.290272620344  0.072469005789
   HP CG3C53  1  0.290272620344  0.072469005789
   HP CG3C54  1  0.290272620344  0.072469005789
   HP CG3C31  1  0.290272620344  0.072469005789
   HP CG3C41  1  0.290272620344  0.072469005789
   HP CG3RC1  1  0.290272620344  0.072469005789
   HP CG3AM0  1  0.296508911371  0.191734967077
   HP CG3AM1  1  0.297399810090  0.202394918513
   HP CG3AM2  1  0.298290708808  0.204973301676
   HP NG1T1  1  0.280472734445  0.307459952514
   HP NG2D1  1  0.285818126754  0.324091246411
   HP NG2S0  1  0.285818126754  0.007246900579
   HP NG2S1  1  0.259091165210  0.324091246411
   HP NG2S2  1  0.285818126754  0.324091246411
   HP NG2S3  1  0.285818126754  0.324091246411
   HP NG2O1  1  0.285818126754  0.324091246411
   HP NG2P1  1  0.285818126754  0.324091246411
   HP NG2R43  1  0.285818126754  0.324091246411
   HP NG2R50  1  0.285818126754  0.324091246411
   HP NG2R51  1  0.285818126754  0.324091246411
   HP NG2R52  1  0.285818126754  0.324091246411
   HP NG2R53  1  0.285818126754  0.324091246411
   HP NG2R57  1  0.285818126754  0.324091246411
   HP NG2R60  1  0.289381721626  0.177512086349
   HP NG2R61  1  0.285818126754  0.324091246411
   HP NG2R62  1  0.304526999835  0.162045623205
   HP NG2R67  1  0.285818126754  0.324091246411
   HP NG2RC0  1  0.285818126754  0.324091246411
   HP NG301  1  0.299181607526  0.135577095411
   HP NG311  1  0.299181607526  0.153729976257
   HP NG321  1  0.298290708808  0.177512086349
   HP NG331  1  0.297399810090  0.191734967077
   HP NG3C51  1  0.285818126754  0.324091246411
   HP NG3N1  1  0.303636101117  0.177512086349
   HP NG3P0  1  0.285818126754  0.324091246411
   HP NG3P1  1  0.285818126754  0.324091246411
   HP NG3P2  1  0.285818126754  0.324091246411
   HP NG3P3  1  0.285818126754  0.324091246411
   HP OG2D1  1  0.245727684437  0.251040000000
   HP OG2D2  1  0.272454645982  0.251040000000
   HP OG2D3  1  0.245727684437  0.251040000000
   HP OG2D4  1  0.272454645982  0.251040000000
   HP OG2D5  1  0.271741927007  0.294370493087
   HP OG2N1  1  0.272454645982  0.251040000000
   HP OG2P1  1  0.272454645982  0.251040000000
   HP OG2R50  1  0.272454645982  0.251040000000
   HP OG3R60  1  0.268000152391  0.229167118060
   HP OG301  1  0.268000152391  0.229167118060
   HP OG302  1  0.268000152391  0.229167118060
   HP OG303  1  0.268000152391  0.229167118060
   HP OG304  1  0.268000152391  0.229167118060
   HP OG311  1  0.278245487650  0.317625956320
   HP OG312  1  0.276909139572  0.251040000000
   HP OG3C31  1  0.268000152391  0.229167118060
   HP OG3C51  1  0.268000152391  0.229167118060
   HP OG3C61  1  0.268000152391  0.229167118060
   HP OGTIP3  1  0.278530575239  0.282629122576
   HP SG2D1  1  0.303636101117  0.544724021134
   HP SG2R50  1  0.299181607526  0.486136869616
   HP SG311  1  0.299181607526  0.486136869616
   HP SG301  1  0.296954360731  0.446728954065
   HP SG302  1  0.316999581889  0.496822472922
   HP SG3O1  1  0.308090594707  0.496822472922
   HP SG3O2  1  0.299181607526  0.428732420048
   HP SG3O3  1  0.299181607526  0.428732420048
   HP  FGA1  1  0.266218354955  0.266268129524
   HP  FGA2  1  0.266218354955  0.234826417594
   HP  FGA3  1  0.263545658800  0.225703435862
   HP  FGP1  1  0.263545658800  0.225703435862
   HP  FGR1  1  0.272454645982  0.251040000000
   HP CLGA1  1  0.291163519063  0.424423442142
   HP CLGA3  1  0.291163519063  0.403490347840
   HP BRGA1  1  0.296508911371  0.502080000000
   HP BRGA2  1  0.303636101117  0.527582325709
   HP BRGA3  1  0.299181607526  0.532536259047
   HP   SOD  1  0.246685400559  0.156941834423
   HP   CLA  1  0.323235872916  0.280671252536
   HP   PG0  1  0.312545088298  0.554281311971
   HP   PG1  1  0.312545088298  0.554281311971
   HP   PG2  1  0.312545088298  0.554281311971
   HP  ALG1  1  0.299181607526  0.584263803431
   HP   LPH  1  0.121001863898  0.000000000000
   HP CLGR1  1  0.286709025472  0.347549142424
   HP BRGR1  1  0.297399810090  0.409946603352
   HP  IGR1  1  0.320563176761  0.522581432506
   HP SG2P1  1  0.307529328515  0.575569994826
   HP OG2S1  1  0.270637212597  0.273372455204
   HP SG2P2  1  0.304045914527  0.570575502481
   HP SEGD1  1  0.314772335093  0.572000392168
   HP BG201  1  0.348181037024  0.141268099159
   HP CC301  1  0.290272620344  0.072469005789
   HP CC3062  1  0.290272620344  0.072469005789
   HP CC311  1  0.290272620344  0.072469005789
   HP CC3161  1  0.290272620344  0.072469005789
   HP CC3162  1  0.290272620344  0.072469005789
   HP CC3163  1  0.290272620344  0.072469005789
   HP CC321  1  0.290272620344  0.072469005789
   HP CC3261  1  0.290272620344  0.072469005789
   HP CC3263  1  0.290272620344  0.072469005789
   HP CC331  1  0.290272620344  0.072469005789
   HP CC2O1  1  0.299181607526  0.240352501131
   HP CC2O2  1  0.299181607526  0.191734967077
   HP CC2O3  1  0.299181607526  0.217407017366
   HP CC2O4  1  0.281363633163  0.177512086349
   HP CC2O5  1  0.272454645982  0.226863872487
   HP OC2D1  1  0.245727684437  0.251040000000
   HP OC2D2  1  0.272454645982  0.251040000000
   HP OC2D3  1  0.245727684437  0.251040000000
   HP OC2D4  1  0.245727684437  0.251040000000
   HP OC3C61  1  0.268000152391  0.229167118060
   HP OC311  1  0.278245487650  0.317625956320
   HP NC2D1  1  0.259091165210  0.324091246411
   HP  HCP1  1  0.141002540120  0.155428701597
   HP  HCA1  1  0.240382292129  0.153729976257
   HP  HCA2  1  0.240382292129  0.135577095411
   HP  HCA3  1  0.240382292129  0.112268501014
   HP CC312  1  0.290272620344  0.072469005789
   HP CC322  1  0.290272620344  0.072469005789
   HP  HCR1  1  0.192273761349  0.155428701597
   HP HCA3M  1  0.240382292129  0.112268501014
   HP CC321C  1  0.290272620344  0.072469005789
   HP CC321D  1  0.290272620344  0.072469005789
   HP CC311C  1  0.290272620344  0.072469005789
   HP CC311D  1  0.290272620344  0.072469005789
   HP OC301  1  0.268000152391  0.229167118060
   HP OC302  1  0.268000152391  0.229167118060
   HP HCP1M  1  0.141002540120  0.155428701597
   HP OC311M  1  0.278245487650  0.317625956320
   HP OC3C5M  1  0.268000152391  0.229167118060
   HP CC322C  1  0.290272620344  0.072469005789
   HP HCA2C2  1  0.236818697256  0.135577095411
   HP CC312C  1  0.290272620344  0.072469005789
   HP HCA1C2  1  0.240382292129  0.153729976257
   HP OC3C51  1  0.268000152391  0.229167118060
   HP CC3152  1  0.290272620344  0.072469005789
   HP CC3051  1  0.290272620344  0.072469005789
   HP CC3251  1  0.290272620344  0.072469005789
   HP CC3151  1  0.290272620344  0.072469005789
   HP CC3153  1  0.290272620344  0.072469005789
   HP OC2DP  1  0.272454645982  0.251040000000
   HP OC312  1  0.278690937009  0.282629122576
   HP OC30P  1  0.278690937009  0.282629122576
   HP    PC  1  0.312545088298  0.554281311971
   HP    SC  1  0.308090594707  0.496822472922
   HP CC312D  1  0.290272620344  0.072469005789
   HP OC303  1  0.268000152391  0.229167118060
   HP NC311  1  0.299181607526  0.153729976257
   HP   HN1  1  0.141002540120  0.155428701597
   HP   HN2  1  0.141002540120  0.155428701597
   HP   HN3  1  0.219000722893  0.155428701597
   HP   HN4  1  0.141002540120  0.155428701597
   HP   HN5  1  0.141002540120  0.155428701597
   HP   HN6  1  0.238600494692  0.107488906218
   HP   HN7  1  0.238600494692  0.107488906218
   HP   HN8  1  0.240382292129  0.121263840612
   HP   HN9  1  0.240382292129  0.112268501014
   HP   NN1  1  0.285818126754  0.324091246411
   HP   NN2  1  0.285818126754  0.324091246411
   HP  NN2B  1  0.285818126754  0.324091246411
   HP  NN2G  1  0.285818126754  0.324091246411
   HP  NN2U  1  0.285818126754  0.324091246411
   HP   NN3  1  0.285818126754  0.324091246411
   HP  NN3A  1  0.285818126754  0.324091246411
   HP  NN3G  1  0.285818126754  0.324091246411
   HP   NN4  1  0.285818126754  0.324091246411
   HP   NN6  1  0.285818126754  0.324091246411
   HP   ON1  1  0.272454645982  0.251040000000
   HP  ON1C  1  0.272454645982  0.251040000000
   HP   ON2  1  0.278690937009  0.282629122576
   HP   ON3  1  0.272454645982  0.251040000000
   HP   ON4  1  0.278690937009  0.282629122576
   HP   ON5  1  0.278690937009  0.282629122576
   HP   ON6  1  0.278690937009  0.282629122576
   HP  ON6B  1  0.278690937009  0.282629122576
   HP   CN1  1  0.290272620344  0.229167118060
   HP  CN1T  1  0.290272620344  0.229167118060
   HP   CN2  1  0.290272620344  0.229167118060
   HP   CN3  1  0.290272620344  0.217407017366
   HP  CN3T  1  0.290272620344  0.217407017366
   HP   CN4  1  0.290272620344  0.198464545952
   HP   CN5  1  0.290272620344  0.198464545952
   HP  CN5G  1  0.290272620344  0.198464545952
   HP   CN7  1  0.290272620344  0.072469005789
   HP  CN7B  1  0.290272620344  0.072469005789
   HP   CN8  1  0.290272620344  0.072469005789
   HP  CN8B  1  0.290272620344  0.072469005789
   HP   CN9  1  0.290272620344  0.072469005789
   HP     P  1  0.312545088298  0.554281311971
   HP    P2  1  0.312545088298  0.554281311971
   HP    P3  1  0.312545088298  0.554281311971
   HP    P4  1  0.312545088298  0.554281311971
   HP   HOL  1  0.141002540120  0.155428701597
   HP  HAL1  1  0.238600494692  0.107488906218
   HP  HAL2  1  0.240382292129  0.121263840612
   HP  HAL3  1  0.240382292129  0.112268501014
   HP   HBL  1  0.238600494692  0.107488906218
   HP   HCL  1  0.141002540120  0.155428701597
   HP    HL  1  0.183364774168  0.155428701597
   HP  HEL1  1  0.232364203665  0.127594851307
   HP  HEL2  1  0.233255102384  0.116852760686
   HP    CL  1  0.299181607526  0.191734967077
   HP   CCL  1  0.299181607526  0.191734967077
   HP  CTL1  1  0.290272620344  0.072469005789
   HP  CTL2  1  0.290272620344  0.072469005789
   HP  CTL3  1  0.290272620344  0.072469005789
   HP  CTL5  1  0.290272620344  0.072469005789
   HP  CEL1  1  0.307199695989  0.188976046736
   HP  CEL2  1  0.306308797271  0.183333694448
   HP  CRL1  1  0.290272620344  0.072469005789
   HP  CRL2  1  0.290272620344  0.072469005789
   HP   OBL  1  0.245727684437  0.251040000000
   HP   OCL  1  0.272454645982  0.251040000000
   HP   O2L  1  0.272454645982  0.251040000000
   HP   OHL  1  0.278690937009  0.282629122576
   HP   OSL  1  0.268000152391  0.229167118060
   HP  OSLP  1  0.268000152391  0.229167118060
   HP  NH3L  1  0.285818126754  0.324091246411
   HP   NTL  1  0.285818126754  0.324091246411
   HP    SL  1  0.308090594707  0.496822472922
   HP    PL  1  0.312545088298  0.554281311971
   HP HCA1A  1  0.240382292129  0.153729976257
   HP HCA2A  1  0.240382292129  0.135577095411
   HP HCA3A  1  0.240382292129  0.112268501014
   HP CC30A  1  0.290272620344  0.072469005789
   HP CC31A  1  0.290272620344  0.072469005789
   HP CC32A  1  0.290272620344  0.072469005789
   HP CC33A  1  0.290272620344  0.072469005789
   HP CC326A  1  0.290272620344  0.072469005789
   HP HCA25A  1  0.236818697256  0.135577095411
   HP CC325A  1  0.290272620344  0.072469005789
   HP CC325B  1  0.290272620344  0.072469005789
   HP OC305A  1  0.268000152391  0.229167118060
   HP OC30A  1  0.268000152391  0.229167118060
   HP  HSIO  1  0.141002540120  0.155428701597
   HP  HSIA  1  0.238600494692  0.107488906218
   HP   HAL  1  0.238600494692  0.107488906218
   HP    AL  1  0.316999581889  0.584263803431
   HP    SI  1  0.316999581889  0.561342505072
   HP  SIH3  1  0.316999581889  0.561342505072
   HP  OSIH  1  0.278690937009  0.282629122576
   HP  OSIE  1  0.278690937009  0.282629122576
   HP  OSIA  1  0.278690937009  0.282629122576
   HP   OAL  1  0.278690937009  0.282629122576
   HP    HT  1  0.141002540120  0.155428701597
   HP    OT  1  0.278530575239  0.282629122576
   HP   DUM  1  0.121001863898  0.000000000000
   HP    CM  1  0.308090594707  0.240352501131
   HP   CPA  1  0.281363633163  0.217407017366
   HP   CPB  1  0.281363633163  0.217407017366
   HP   CPM  1  0.281363633163  0.217407017366
   HP   CST  1  0.260249333543  0.174528477447
   HP  CT1X  1  0.290272620344  0.072469005789
   HP  CT2X  1  0.290272620344  0.072469005789
   HP  CT3X  1  0.290272620344  0.072469005789
   HP    HB  1  0.238600494692  0.107488906218
   HP   NPH  1  0.285818126754  0.324091246411
   HP    OM  1  0.272454645982  0.251040000000
   HP   OST  1  0.271741927007  0.294370493087
   HP   POT  1  0.278134125310  0.213752857665
   HP   CAL  1  0.242787718668  0.251040000000
   HP    MG  1  0.226573361997  0.088756043175
   HP   CES  1  0.308090594707  0.315885072772
   HP    ZN  1  0.218109824175  0.362345028943
   HP    FE  1  0.178910280577  0.000000000000
   HP    HE  1  0.252854874183  0.105690523291
   HP    NE  1  0.257309367773  0.212520842460
   HP  CLAL  1  0.291003157293  0.125520000000
   HP    AG  1  0.252632149503  1.547514491305
   HP    AU  1  0.252453969759  1.666787133140
   HP    CU  1  0.237531416231  1.574429804596
   HP    NI  1  0.234680540333  1.722568602988
   HP    PB  1  0.279804560406  1.240469565286
   HP    PD  1  0.246574038220  1.797172899862
   HP    PT  1  0.247732206553  2.023949185133
   HP   CAP  1  0.298504524500  0.191734967077
   HP    FA  1  0.272454645982  0.251040000000
   HP    CN  1  0.276909139572  0.324091246411
   HP    NC  1  0.285818126754  0.561342505072
   HP   OCA  1  0.245727684437  0.251040000000
   HP   COA  1  0.299181607526  0.240352501131
   HP   CF1  1  0.290272620344  0.177512086349
   HP   CF2  1  0.303636101117  0.148517266875
   HP   CF3  1  0.325908569070  0.102486650838
   HP   HF1  1  0.238600494692  0.121263840612
   HP   HF2  1  0.236818697256  0.125520000000
   HP    F1  1  0.266218354955  0.266268129524
   HP    F2  1  0.266218354955  0.234826417594
   HP    F3  1  0.263545658800  0.225703435862
   HP    OX  1  0.272454645982  0.251040000000
   HP    HX  1  0.141002540120  0.155428701597
   HP  HPER  1  0.141002540120  0.155428701597
   HP  OPER  1  0.270158799985  0.327187729922
   HP   LIT  1  0.236595972577  0.034980842391
   HP   RUB  1  0.290272620344  0.280671252536
   HP   BAR  1  0.289381721626  0.280671252536
   HP   CAD  1  0.241896819949  0.251040000000
   HP  ON2B  1  0.278690937009  0.282629122576
   HP    SP  1  0.316999581889  0.486136869616
   HP   HNP  1  0.242003727796  0.125520000000
   HP  HNE1  1  0.232364203665  0.127594851307
   HP  HNE2  1  0.233255102384  0.116852760686
   HP  CN3D  1  0.290272620344  0.217407017366
   HP  CNE1  1  0.307199695989  0.188976046736
   HP  CNE2  1  0.306308797271  0.183333694448
   HP   CNA  1  0.298504524500  0.191734967077
   HP  CNA2  1  0.290272620344  0.191734967077
   HP   CNG  1  0.299181607526  0.240352501131
   HP  NN1C  1  0.285818126754  0.324091246411
   HP  NN2C  1  0.285818126754  0.324091246411
   HP  NN3I  1  0.285818126754  0.324091246411
   HP   NNG  1  0.285818126754  0.324091246411
   HP   FNA  1  0.272454645982  0.251040000000
   HP  ON2M  1  0.268000152391  0.229167118060
   HP   CN6  1  0.290272620344  0.072469005789
   HP  CN7E  1  0.290272620344  0.072469005789
   HP  CT2P  1  0.290272620344  0.072469005789
   HP  CTD1  1  0.290272620344  0.072469005789
   HP  CPD1  1  0.290272620344  0.072469005789
   HP  CC1A  1  0.307199695989  0.188976046736
   HP  CC1B  1  0.307199695989  0.188976046736
   HP   CC2  1  0.306308797271  0.183333694448
   HP   NS1  1  0.285818126754  0.324091246411
   HP   NS2  1  0.285818126754  0.324091246411
   HP   NHL  1  0.259091165210  0.324091246411
   HP  CTO1  1  0.290272620344  0.072469005789
   HP  CEL3  1  0.307199695989  0.188976046736
   HP  CTO2  1  0.290272620344  0.072469005789
   HP  HN3B  1  0.201182748530  0.155428701597
   HP  CN1A  1  0.299181607526  0.191734967077
   HP  CN3A  1  0.281363633163  0.307459952514
   HP  CN3B  1  0.281363633163  0.307459952514
   HP  CN3C  1  0.281363633163  0.307459952514
    N     C  1  0.342996006484  0.013876758123
    N    CA  1  0.342318923458  0.011069823485
    N    CC  1  0.342996006484  0.011069823485
    N    CD  1  0.342996006484  0.011069823485
    N   CE1  1  0.351014094947  0.010910537145
    N   CE2  1  0.350123196229  0.010584775784
    N   CP1  1  0.334087019303  0.004184000000
    N   CP2  1  0.334087019303  0.004184000000
    N   CP3  1  0.334087019303  0.004184000000
    N  CPH1  1  0.325178032121  0.009355708418
    N  CPH2  1  0.325178032121  0.009355708418
    N    CS  1  0.360813980847  0.013876758123
    N   CPT  1  0.330523424430  0.013164648662
    N    CY  1  0.342105107766  0.011304545493
    N   CAI  1  0.342105107766  0.011304545493
    N    CT  1  0.334087019303  0.004184000000
    N   CT1  1  0.334087019303  0.004184000000
    N   CT2  1  0.334087019303  0.004184000000
    N  CT2A  1  0.334087019303  0.004184000000
    N   CT3  1  0.334087019303  0.004184000000
    N    C3  1  0.367495721233  0.005917069545
    N     H  1  0.184816939078  0.008973680271
    N    HA  1  0.282414893650  0.006205874894
    N   HB1  1  0.282414893650  0.006205874894
    N   HB2  1  0.284196691087  0.007001171102
    N   HE1  1  0.276178602624  0.007366692175
    N   HE2  1  0.277069501342  0.006746497284
    N    HC  1  0.184816939078  0.008973680271
    N    HP  1  0.285818126754  0.007246900579
    N   HR1  1  0.244997147489  0.008973680271
    N   HR2  1  0.227179173126  0.008973680271
    N   HR3  1  0.295600194679  0.003695208746
    N    HS  1  0.204906705172  0.013230969730
    N   HA1  1  0.284196691087  0.008875604317
    N   HA2  1  0.284196691087  0.007714914802
    N   HA3  1  0.284196691087  0.006481824928
    N     N  1  0.329632525712  0.000418400000
    N   NC2  1  0.329632525712  0.018711416836
    N   NH1  1  0.302905564168  0.018711416836
    N   NH2  1  0.329632525712  0.018711416836
    N   NH3  1  0.329632525712  0.018711416836
    N    NP  1  0.329632525712  0.018711416836
    N   NR1  1  0.329632525712  0.018711416836
    N   NR2  1  0.329632525712  0.018711416836
    N   NR3  1  0.329632525712  0.018711416836
    N    NY  1  0.329632525712  0.018711416836
    N     O  1  0.289542083396  0.014493801158
    N    OB  1  0.289542083396  0.014493801158
    N    OC  1  0.316269044940  0.014493801158
    N   OH1  1  0.322505335967  0.016317600000
    N    OS  1  0.322505335967  0.016317600000
    N     S  1  0.342996006484  0.028067125254
    N    SM  1  0.340768759689  0.025791908188
    N    SS  1  0.360813980847  0.028684058848
    N  HGA1  1  0.284196691087  0.008875604317
    N  HGA2  1  0.284196691087  0.007827547253
    N  HGA3  1  0.284196691087  0.006481824928
    N  HGA4  1  0.276178602624  0.007366692175
    N  HGA5  1  0.277069501342  0.006746497284
    N  HGA6  1  0.282414893650  0.007001171102
    N  HGA7  1  0.280633096214  0.007246900579
    N HGAAM0  1  0.278851298778  0.007001171102
    N HGAAM1  1  0.278851298778  0.007001171102
    N HGAAM2  1  0.277069501342  0.008368000000
    N  HGP1  1  0.184816939078  0.008973680271
    N  HGP2  1  0.184816939078  0.008973680271
    N  HGP3  1  0.204906705172  0.013230969730
    N  HGP4  1  0.184816939078  0.008973680271
    N  HGP5  1  0.227179173126  0.008973680271
    N HGPAM1  1  0.242769900693  0.003969290919
    N HGPAM2  1  0.242769900693  0.004184000000
    N HGPAM3  1  0.242324451334  0.004583342361
    N HGR51  1  0.285818126754  0.007246900579
    N HGR52  1  0.244997147489  0.008973680271
    N HGR53  1  0.227179173126  0.008973680271
    N HGR61  1  0.285818126754  0.007246900579
    N HGR62  1  0.262815121851  0.008973680271
    N HGR63  1  0.244997147489  0.008973680271
    N HGR71  1  0.285818126754  0.007246900579
    N HGTIP3  1  0.184816939078  0.008973680271
    N CG1T1  1  0.328741626994  0.017098181049
    N CG1T2  1  0.342327832445  0.013440998249
    N CG1N1  1  0.331414323148  0.017751208635
    N CG2D1  1  0.351014094947  0.010910537145
    N CG2D2  1  0.350123196229  0.010584775784
    N CG2D1O  1  0.351014094947  0.010910537145
    N CG2D2O  1  0.351014094947  0.010910537145
    N CG2DC1  1  0.351014094947  0.010910537145
    N CG2DC2  1  0.351014094947  0.010910537145
    N CG2DC3  1  0.350123196229  0.010584775784
    N CG2N1  1  0.342996006484  0.013876758123
    N CG2N2  1  0.342996006484  0.013876758123
    N CG2O1  1  0.342996006484  0.013876758123
    N CG2O2  1  0.316269044940  0.013097991785
    N CG2O3  1  0.342996006484  0.011069823485
    N CG2O4  1  0.325178032121  0.010248665084
    N CG2O5  1  0.342996006484  0.012552000000
    N CG2O6  1  0.342996006484  0.011069823485
    N CG2O7  1  0.304063732501  0.010076406344
    N CG2R51  1  0.351904993665  0.009355708418
    N CG2R52  1  0.360813980847  0.005917069545
    N CG2R53  1  0.360813980847  0.005917069545
    N CG2R57  1  0.351904993665  0.009355708418
    N CG25C1  1  0.351014094947  0.010910537145
    N CG25C2  1  0.351014094947  0.010910537145
    N CG251O  1  0.351014094947  0.010910537145
    N CG252O  1  0.351014094947  0.010910537145
    N CG2R61  1  0.342318923458  0.011069823485
    N CG2R62  1  0.334087019303  0.012552000000
    N CG2R63  1  0.334087019303  0.013230969730
    N CG2R64  1  0.351904993665  0.008368000000
    N CG2R66  1  0.334087019303  0.011069823485
    N CG2R67  1  0.342318923458  0.011069823485
    N CG2RC0  1  0.330523424430  0.013164648662
    N CG2R71  1  0.342532739151  0.010830015476
    N CG2RC7  1  0.330523424430  0.013164648662
    N CG301  1  0.334087019303  0.004184000000
    N CG302  1  0.369722968028  0.005917069545
    N CG311  1  0.334087019303  0.004184000000
    N CG312  1  0.347450500075  0.008574648401
    N CG314  1  0.334087019303  0.004184000000
    N CG321  1  0.334087019303  0.004184000000
    N CG322  1  0.334087019303  0.010248665084
    N CG323  1  0.360813980847  0.013876758123
    N CG324  1  0.334087019303  0.004184000000
    N CG331  1  0.334087019303  0.004184000000
    N CG334  1  0.334087019303  0.004184000000
    N CG3C50  1  0.334087019303  0.004184000000
    N CG3C51  1  0.334087019303  0.004184000000
    N CG3C52  1  0.334087019303  0.004184000000
    N CG3C53  1  0.334087019303  0.004184000000
    N CG3C54  1  0.334087019303  0.004184000000
    N CG3C31  1  0.334087019303  0.004184000000
    N CG3C41  1  0.334087019303  0.004184000000
    N CG3RC1  1  0.334087019303  0.004184000000
    N CG3AM0  1  0.340323310330  0.011069823485
    N CG3AM1  1  0.341214209048  0.011685276069
    N CG3AM2  1  0.342105107766  0.011834139090
    N NG1T1  1  0.324287133403  0.017751208635
    N NG2D1  1  0.329632525712  0.018711416836
    N NG2S0  1  0.329632525712  0.000418400000
    N NG2S1  1  0.302905564168  0.018711416836
    N NG2S2  1  0.329632525712  0.018711416836
    N NG2S3  1  0.329632525712  0.018711416836
    N NG2O1  1  0.329632525712  0.018711416836
    N NG2P1  1  0.329632525712  0.018711416836
    N NG2R43  1  0.329632525712  0.018711416836
    N NG2R50  1  0.329632525712  0.018711416836
    N NG2R51  1  0.329632525712  0.018711416836
    N NG2R52  1  0.329632525712  0.018711416836
    N NG2R53  1  0.329632525712  0.018711416836
    N NG2R57  1  0.329632525712  0.018711416836
    N NG2R60  1  0.333196120584  0.010248665084
    N NG2R61  1  0.329632525712  0.018711416836
    N NG2R62  1  0.348341398793  0.009355708418
    N NG2R67  1  0.329632525712  0.018711416836
    N NG2RC0  1  0.329632525712  0.018711416836
    N NG301  1  0.342996006484  0.007827547253
    N NG311  1  0.342996006484  0.008875604317
    N NG321  1  0.342105107766  0.010248665084
    N NG331  1  0.341214209048  0.011069823485
    N NG3C51  1  0.329632525712  0.018711416836
    N NG3N1  1  0.347450500075  0.010248665084
    N NG3P0  1  0.329632525712  0.018711416836
    N NG3P1  1  0.329632525712  0.018711416836
    N NG3P2  1  0.329632525712  0.018711416836
    N NG3P3  1  0.329632525712  0.018711416836
    N OG2D1  1  0.289542083396  0.014493801158
    N OG2D2  1  0.316269044940  0.014493801158
    N OG2D3  1  0.289542083396  0.014493801158
    N OG2D4  1  0.316269044940  0.014493801158
    N OG2D5  1  0.315556325965  0.016995488342
    N OG2N1  1  0.316269044940  0.014493801158
    N OG2P1  1  0.316269044940  0.014493801158
    N OG2R50  1  0.316269044940  0.014493801158
    N OG3R60  1  0.311814551349  0.013230969730
    N OG301  1  0.311814551349  0.013230969730
    N OG302  1  0.311814551349  0.013230969730
    N OG303  1  0.311814551349  0.013230969730
    N OG304  1  0.311814551349  0.013230969730
    N OG311  1  0.322059886608  0.018338143138
    N OG312  1  0.320723538531  0.014493801158
    N OG3C31  1  0.311814551349  0.013230969730
    N OG3C51  1  0.311814551349  0.013230969730
    N OG3C61  1  0.311814551349  0.013230969730
    N OGTIP3  1  0.322344974198  0.016317600000
    N SG2D1  1  0.347450500075  0.031449656024
    N SG2R50  1  0.342996006484  0.028067125254
    N SG311  1  0.342996006484  0.028067125254
    N SG301  1  0.340768759689  0.025791908188
    N SG302  1  0.360813980847  0.028684058848
    N SG3O1  1  0.351904993665  0.028684058848
    N SG3O2  1  0.342996006484  0.024752877812
    N SG3O3  1  0.342996006484  0.024752877812
    N  FGA1  1  0.310032753913  0.015372997626
    N  FGA2  1  0.310032753913  0.013557709541
    N  FGA3  1  0.307360057758  0.013030993945
    N  FGP1  1  0.307360057758  0.013030993945
    N  FGR1  1  0.316269044940  0.014493801158
    N CLGA1  1  0.334977918021  0.024504098857
    N CLGA3  1  0.334977918021  0.023295526094
    N BRGA1  1  0.340323310330  0.028987602315
    N BRGA2  1  0.347450500075  0.030459979777
    N BRGA3  1  0.342996006484  0.030745995251
    N   SOD  1  0.290499799518  0.009061041035
    N   CLA  1  0.367050271874  0.016204562321
    N   PG0  1  0.356359487256  0.032001446467
    N   PG1  1  0.356359487256  0.032001446467
    N   PG2  1  0.356359487256  0.032001446467
    N  ALG1  1  0.342996006484  0.033732486419
    N   LPH  1  0.164816262856  0.000000000000
    N CLGR1  1  0.330523424430  0.020065759094
    N BRGR1  1  0.341214209048  0.023668278180
    N  IGR1  1  0.364377575719  0.030171253073
    N SG2P1  1  0.351343727473  0.033230549145
    N OG2S1  1  0.314451611555  0.015783166060
    N SG2P2  1  0.347860313485  0.032942191995
    N SEGD1  1  0.358586734051  0.033024458039
    N BG201  1  0.391995435982  0.008156117508
    N CC301  1  0.334087019303  0.004184000000
    N CC3062  1  0.334087019303  0.004184000000
    N CC311  1  0.334087019303  0.004184000000
    N CC3161  1  0.334087019303  0.004184000000
    N CC3162  1  0.334087019303  0.004184000000
    N CC3163  1  0.334087019303  0.004184000000
    N CC321  1  0.334087019303  0.004184000000
    N CC3261  1  0.334087019303  0.004184000000
    N CC3263  1  0.334087019303  0.004184000000
    N CC331  1  0.334087019303  0.004184000000
    N CC2O1  1  0.342996006484  0.013876758123
    N CC2O2  1  0.342996006484  0.011069823485
    N CC2O3  1  0.342996006484  0.012552000000
    N CC2O4  1  0.325178032121  0.010248665084
    N CC2O5  1  0.316269044940  0.013097991785
    N OC2D1  1  0.289542083396  0.014493801158
    N OC2D2  1  0.316269044940  0.014493801158
    N OC2D3  1  0.289542083396  0.014493801158
    N OC2D4  1  0.289542083396  0.014493801158
    N OC3C61  1  0.311814551349  0.013230969730
    N OC311  1  0.322059886608  0.018338143138
    N NC2D1  1  0.302905564168  0.018711416836
    N  HCP1  1  0.184816939078  0.008973680271
    N  HCA1  1  0.284196691087  0.008875604317
    N  HCA2  1  0.284196691087  0.007827547253
    N  HCA3  1  0.284196691087  0.006481824928
    N CC312  1  0.334087019303  0.004184000000
    N CC322  1  0.334087019303  0.004184000000
    N  HCR1  1  0.236088160307  0.008973680271
    N HCA3M  1  0.284196691087  0.006481824928
    N CC321C  1  0.334087019303  0.004184000000
    N CC321D  1  0.334087019303  0.004184000000
    N CC311C  1  0.334087019303  0.004184000000
    N CC311D  1  0.334087019303  0.004184000000
    N OC301  1  0.311814551349  0.013230969730
    N OC302  1  0.311814551349  0.013230969730
    N HCP1M  1  0.184816939078  0.008973680271
    N OC311M  1  0.322059886608  0.018338143138
    N OC3C5M  1  0.311814551349  0.013230969730
    N CC322C  1  0.334087019303  0.004184000000
    N HCA2C2  1  0.280633096214  0.007827547253
    N CC312C  1  0.334087019303  0.004184000000
    N HCA1C2  1  0.284196691087  0.008875604317
    N OC3C51  1  0.311814551349  0.013230969730
    N CC3152  1  0.334087019303  0.004184000000
    N CC3051  1  0.334087019303  0.004184000000
    N CC3251  1  0.334087019303  0.004184000000
    N CC3151  1  0.334087019303  0.004184000000
    N CC3153  1  0.334087019303  0.004184000000
    N OC2DP  1  0.316269044940  0.014493801158
    N OC312  1  0.322505335967  0.016317600000
    N OC30P  1  0.322505335967  0.016317600000
    N    PC  1  0.356359487256  0.032001446467
    N    SC  1  0.351904993665  0.028684058848
    N CC312D  1  0.334087019303  0.004184000000
    N OC303  1  0.311814551349  0.013230969730
    N NC311  1  0.342996006484  0.008875604317
    N   HN1  1  0.184816939078  0.008973680271
    N   HN2  1  0.184816939078  0.008973680271
    N   HN3  1  0.262815121851  0.008973680271
    N   HN4  1  0.184816939078  0.008973680271
    N   HN5  1  0.184816939078  0.008973680271
    N   HN6  1  0.282414893650  0.006205874894
    N   HN7  1  0.282414893650  0.006205874894
    N   HN8  1  0.284196691087  0.007001171102
    N   HN9  1  0.284196691087  0.006481824928
    N   NN1  1  0.329632525712  0.018711416836
    N   NN2  1  0.329632525712  0.018711416836
    N  NN2B  1  0.329632525712  0.018711416836
    N  NN2G  1  0.329632525712  0.018711416836
    N  NN2U  1  0.329632525712  0.018711416836
    N   NN3  1  0.329632525712  0.018711416836
    N  NN3A  1  0.329632525712  0.018711416836
    N  NN3G  1  0.329632525712  0.018711416836
    N   NN4  1  0.329632525712  0.018711416836
    N   NN6  1  0.329632525712  0.018711416836
    N   ON1  1  0.316269044940  0.014493801158
    N  ON1C  1  0.316269044940  0.014493801158
    N   ON2  1  0.322505335967  0.016317600000
    N   ON3  1  0.316269044940  0.014493801158
    N   ON4  1  0.322505335967  0.016317600000
    N   ON5  1  0.322505335967  0.016317600000
    N   ON6  1  0.322505335967  0.016317600000
    N  ON6B  1  0.322505335967  0.016317600000
    N   CN1  1  0.334087019303  0.013230969730
    N  CN1T  1  0.334087019303  0.013230969730
    N   CN2  1  0.334087019303  0.013230969730
    N   CN3  1  0.334087019303  0.012552000000
    N  CN3T  1  0.334087019303  0.012552000000
    N   CN4  1  0.334087019303  0.011458355903
    N   CN5  1  0.334087019303  0.011458355903
    N  CN5G  1  0.334087019303  0.011458355903
    N   CN7  1  0.334087019303  0.004184000000
    N  CN7B  1  0.334087019303  0.004184000000
    N   CN8  1  0.334087019303  0.004184000000
    N  CN8B  1  0.334087019303  0.004184000000
    N   CN9  1  0.334087019303  0.004184000000
    N     P  1  0.356359487256  0.032001446467
    N    P2  1  0.356359487256  0.032001446467
    N    P3  1  0.356359487256  0.032001446467
    N    P4  1  0.356359487256  0.032001446467
    N   HOL  1  0.184816939078  0.008973680271
    N  HAL1  1  0.282414893650  0.006205874894
    N  HAL2  1  0.284196691087  0.007001171102
    N  HAL3  1  0.284196691087  0.006481824928
    N   HBL  1  0.282414893650  0.006205874894
    N   HCL  1  0.184816939078  0.008973680271
    N    HL  1  0.227179173126  0.008973680271
    N  HEL1  1  0.276178602624  0.007366692175
    N  HEL2  1  0.277069501342  0.006746497284
    N    CL  1  0.342996006484  0.011069823485
    N   CCL  1  0.342996006484  0.011069823485
    N  CTL1  1  0.334087019303  0.004184000000
    N  CTL2  1  0.334087019303  0.004184000000
    N  CTL3  1  0.334087019303  0.004184000000
    N  CTL5  1  0.334087019303  0.004184000000
    N  CEL1  1  0.351014094947  0.010910537145
    N  CEL2  1  0.350123196229  0.010584775784
    N  CRL1  1  0.334087019303  0.004184000000
    N  CRL2  1  0.334087019303  0.004184000000
    N   OBL  1  0.289542083396  0.014493801158
    N   OCL  1  0.316269044940  0.014493801158
    N   O2L  1  0.316269044940  0.014493801158
    N   OHL  1  0.322505335967  0.016317600000
    N   OSL  1  0.311814551349  0.013230969730
    N  OSLP  1  0.311814551349  0.013230969730
    N  NH3L  1  0.329632525712  0.018711416836
    N   NTL  1  0.329632525712  0.018711416836
    N    SL  1  0.351904993665  0.028684058848
    N    PL  1  0.356359487256  0.032001446467
    N HCA1A  1  0.284196691087  0.008875604317
    N HCA2A  1  0.284196691087  0.007827547253
    N HCA3A  1  0.284196691087  0.006481824928
    N CC30A  1  0.334087019303  0.004184000000
    N CC31A  1  0.334087019303  0.004184000000
    N CC32A  1  0.334087019303  0.004184000000
    N CC33A  1  0.334087019303  0.004184000000
    N CC326A  1  0.334087019303  0.004184000000
    N HCA25A  1  0.280633096214  0.007827547253
    N CC325A  1  0.334087019303  0.004184000000
    N CC325B  1  0.334087019303  0.004184000000
    N OC305A  1  0.311814551349  0.013230969730
    N OC30A  1  0.311814551349  0.013230969730
    N  HSIO  1  0.184816939078  0.008973680271
    N  HSIA  1  0.282414893650  0.006205874894
    N   HAL  1  0.282414893650  0.006205874894
    N    AL  1  0.360813980847  0.033732486419
    N    SI  1  0.360813980847  0.032409124641
    N  SIH3  1  0.360813980847  0.032409124641
    N  OSIH  1  0.322505335967  0.016317600000
    N  OSIE  1  0.322505335967  0.016317600000
    N  OSIA  1  0.322505335967  0.016317600000
    N   OAL  1  0.322505335967  0.016317600000
    N    HT  1  0.184816939078  0.008973680271
    N    OT  1  0.322344974198  0.016317600000
    N   DUM  1  0.164816262856  0.000000000000
    N    CM  1  0.351904993665  0.013876758123
    N   CPA  1  0.325178032121  0.012552000000
    N   CPB  1  0.325178032121  0.012552000000
    N   CPM  1  0.325178032121  0.012552000000
    N   CST  1  0.304063732501  0.010076406344
    N  CT1X  1  0.334087019303  0.004184000000
    N  CT2X  1  0.334087019303  0.004184000000
    N  CT3X  1  0.334087019303  0.004184000000
    N    HB  1  0.282414893650  0.006205874894
    N   NPH  1  0.329632525712  0.018711416836
    N    OM  1  0.316269044940  0.014493801158
    N   OST  1  0.315556325965  0.016995488342
    N   POT  1  0.321948524268  0.012341026991
    N   CAL  1  0.286602117626  0.014493801158
    N    MG  1  0.270387760956  0.005124332542
    N   CES  1  0.351904993665  0.018237633180
    N    ZN  1  0.261924223133  0.020920000000
    N    FE  1  0.222724679535  0.000000000000
    N    HE  1  0.296669273141  0.006102045207
    N    NE  1  0.301123766731  0.012269896560
    N  CLAL  1  0.334817556252  0.007246900579
    N    AG  1  0.296446548461  0.089345790813
    N    AU  1  0.296268368718  0.096232000000
    N    CU  1  0.281345815189  0.090899747150
    N    NI  1  0.278494939291  0.099452544663
    N    PB  1  0.323618959364  0.071618543744
    N    PD  1  0.290388437178  0.103759825752
    N    PT  1  0.291546605511  0.116852760686
    N   CAP  1  0.342318923458  0.011069823485
    N    FA  1  0.316269044940  0.014493801158
    N    CN  1  0.320723538531  0.018711416836
    N    NC  1  0.329632525712  0.032409124641
    N   OCA  1  0.289542083396  0.014493801158
    N   COA  1  0.342996006484  0.013876758123
    N   CF1  1  0.334087019303  0.010248665084
    N   CF2  1  0.347450500075  0.008574648401
    N   CF3  1  0.369722968028  0.005917069545
    N   HF1  1  0.282414893650  0.007001171102
    N   HF2  1  0.280633096214  0.007246900579
    N    F1  1  0.310032753913  0.015372997626
    N    F2  1  0.310032753913  0.013557709541
    N    F3  1  0.307360057758  0.013030993945
    N    OX  1  0.316269044940  0.014493801158
    N    HX  1  0.184816939078  0.008973680271
    N  HPER  1  0.184816939078  0.008973680271
    N  OPER  1  0.313973198943  0.018890192395
    N   LIT  1  0.280410371535  0.002019619877
    N   RUB  1  0.334087019303  0.016204562321
    N   BAR  1  0.333196120584  0.016204562321
    N   CAD  1  0.285711218908  0.014493801158
    N  ON2B  1  0.322505335967  0.016317600000
    N    SP  1  0.360813980847  0.028067125254
    N   HNP  1  0.285818126754  0.007246900579
    N  HNE1  1  0.276178602624  0.007366692175
    N  HNE2  1  0.277069501342  0.006746497284
    N  CN3D  1  0.334087019303  0.012552000000
    N  CNE1  1  0.351014094947  0.010910537145
    N  CNE2  1  0.350123196229  0.010584775784
    N   CNA  1  0.342318923458  0.011069823485
    N  CNA2  1  0.334087019303  0.011069823485
    N   CNG  1  0.342996006484  0.013876758123
    N  NN1C  1  0.329632525712  0.018711416836
    N  NN2C  1  0.329632525712  0.018711416836
    N  NN3I  1  0.329632525712  0.018711416836
    N   NNG  1  0.329632525712  0.018711416836
    N   FNA  1  0.316269044940  0.014493801158
    N  ON2M  1  0.311814551349  0.013230969730
    N   CN6  1  0.334087019303  0.004184000000
    N  CN7E  1  0.334087019303  0.004184000000
    N  CT2P  1  0.334087019303  0.004184000000
    N  CTD1  1  0.334087019303  0.004184000000
    N  CPD1  1  0.334087019303  0.004184000000
    N  CC1A  1  0.351014094947  0.010910537145
    N  CC1B  1  0.351014094947  0.010910537145
    N   CC2  1  0.350123196229  0.010584775784
    N   NS1  1  0.329632525712  0.018711416836
    N   NS2  1  0.329632525712  0.018711416836
    N   NHL  1  0.302905564168  0.018711416836
    N  CTO1  1  0.334087019303  0.004184000000
    N  CEL3  1  0.351014094947  0.010910537145
    N  CTO2  1  0.334087019303  0.004184000000
    N  HN3B  1  0.244997147489  0.008973680271
    N  CN1A  1  0.342996006484  0.011069823485
    N  CN3A  1  0.325178032121  0.017751208635
    N  CN3B  1  0.325178032121  0.017751208635
    N  CN3C  1  0.325178032121  0.017751208635
  NH1     C  1  0.316269044940  0.620587489400
  NH1    CA  1  0.315591961914  0.495057556250
  NH1    CC  1  0.316269044940  0.495057556250
  NH1    CD  1  0.316269044940  0.495057556250
  NH1   CE1  1  0.324287133403  0.487934054561
  NH1   CE2  1  0.323396234685  0.473365563598
  NH1   CP1  1  0.307360057758  0.187114168357
  NH1   CP2  1  0.307360057758  0.187114168357
  NH1   CP3  1  0.307360057758  0.187114168357
  NH1  CPH1  1  0.298451070577  0.418400000000
  NH1  CPH2  1  0.298451070577  0.418400000000
  NH1    CS  1  0.334087019303  0.620587489400
  NH1   CPT  1  0.303796462886  0.588740986173
  NH1    CY  1  0.315378146222  0.505554643535
  NH1   CAI  1  0.315378146222  0.505554643535
  NH1    CT  1  0.307360057758  0.187114168357
  NH1   CT1  1  0.307360057758  0.187114168357
  NH1   CT2  1  0.307360057758  0.187114168357
  NH1  CT2A  1  0.307360057758  0.187114168357
  NH1   CT3  1  0.307360057758  0.187114168357
  NH1    C3  1  0.340768759689  0.264619394603
  NH1     H  1  0.158089977534  0.401315181871
  NH1    HA  1  0.255687932106  0.277535162457
  NH1   HB1  1  0.255687932106  0.277535162457
  NH1   HB2  1  0.257469729543  0.313101890125
  NH1   HE1  1  0.249451641079  0.329448489449
  NH1   HE2  1  0.250342539797  0.301712530731
  NH1    HC  1  0.158089977534  0.401315181871
  NH1    HP  1  0.259091165210  0.324091246411
  NH1   HR1  1  0.218270185944  0.401315181871
  NH1   HR2  1  0.200452211582  0.401315181871
  NH1   HR3  1  0.268873233135  0.165254758963
  NH1    HS  1  0.178179743628  0.591706954497
  NH1   HA1  1  0.257469729543  0.396929091904
  NH1   HA2  1  0.257469729543  0.345021478752
  NH1   HA3  1  0.257469729543  0.289876023155
  NH1     N  1  0.302905564168  0.018711416836
  NH1   NC2  1  0.302905564168  0.836800000000
  NH1   NH1  1  0.276178602624  0.836800000000
  NH1   NH2  1  0.302905564168  0.836800000000
  NH1   NH3  1  0.302905564168  0.836800000000
  NH1    NP  1  0.302905564168  0.836800000000
  NH1   NR1  1  0.302905564168  0.836800000000
  NH1   NR2  1  0.302905564168  0.836800000000
  NH1   NR3  1  0.302905564168  0.836800000000
  NH1    NY  1  0.302905564168  0.836800000000
  NH1     O  1  0.262815121851  0.648182492821
  NH1    OB  1  0.262815121851  0.648182492821
  NH1    OC  1  0.289542083396  0.648182492821
  NH1   OH1  1  0.295778374423  0.729745256593
  NH1    OS  1  0.295778374423  0.729745256593
  NH1     S  1  0.316269044940  1.255200000000
  NH1    SM  1  0.314041798144  1.153449199575
  NH1    SS  1  0.334087019303  1.282790109098
  NH1  HGA1  1  0.257469729543  0.396929091904
  NH1  HGA2  1  0.257469729543  0.350058555102
  NH1  HGA3  1  0.257469729543  0.289876023155
  NH1  HGA4  1  0.249451641079  0.329448489449
  NH1  HGA5  1  0.250342539797  0.301712530731
  NH1  HGA6  1  0.255687932106  0.313101890125
  NH1  HGA7  1  0.253906134670  0.324091246411
  NH1 HGAAM0  1  0.252124337234  0.313101890125
  NH1 HGAAM1  1  0.252124337234  0.313101890125
  NH1 HGAAM2  1  0.250342539797  0.374228336714
  NH1  HGP1  1  0.158089977534  0.401315181871
  NH1  HGP2  1  0.158089977534  0.401315181871
  NH1  HGP3  1  0.178179743628  0.591706954497
  NH1  HGP4  1  0.158089977534  0.401315181871
  NH1  HGP5  1  0.200452211582  0.401315181871
  NH1 HGPAM1  1  0.216042939149  0.177512086349
  NH1 HGPAM2  1  0.216042939149  0.187114168357
  NH1 HGPAM3  1  0.215597489790  0.204973301676
  NH1 HGR51  1  0.259091165210  0.324091246411
  NH1 HGR52  1  0.218270185944  0.401315181871
  NH1 HGR53  1  0.200452211582  0.401315181871
  NH1 HGR61  1  0.259091165210  0.324091246411
  NH1 HGR62  1  0.236088160307  0.401315181871
  NH1 HGR63  1  0.218270185944  0.401315181871
  NH1 HGR71  1  0.259091165210  0.324091246411
  NH1 HGTIP3  1  0.158089977534  0.401315181871
  NH1 CG1T1  1  0.302014665450  0.764653902364
  NH1 CG1T2  1  0.315600870901  0.601099715388
  NH1 CG1N1  1  0.304687361604  0.793858183809
  NH1 CG2D1  1  0.324287133403  0.487934054561
  NH1 CG2D2  1  0.323396234685  0.473365563598
  NH1 CG2D1O  1  0.324287133403  0.487934054561
  NH1 CG2D2O  1  0.324287133403  0.487934054561
  NH1 CG2DC1  1  0.324287133403  0.487934054561
  NH1 CG2DC2  1  0.324287133403  0.487934054561
  NH1 CG2DC3  1  0.323396234685  0.473365563598
  NH1 CG2N1  1  0.316269044940  0.620587489400
  NH1 CG2N2  1  0.316269044940  0.620587489400
  NH1 CG2O1  1  0.316269044940  0.620587489400
  NH1 CG2O2  1  0.289542083396  0.585760000000
  NH1 CG2O3  1  0.316269044940  0.495057556250
  NH1 CG2O4  1  0.298451070577  0.458334236120
  NH1 CG2O5  1  0.316269044940  0.561342505072
  NH1 CG2O6  1  0.316269044940  0.495057556250
  NH1 CG2O7  1  0.277336770957  0.450630591061
  NH1 CG2R51  1  0.325178032121  0.418400000000
  NH1 CG2R52  1  0.334087019303  0.264619394603
  NH1 CG2R53  1  0.334087019303  0.264619394603
  NH1 CG2R57  1  0.325178032121  0.418400000000
  NH1 CG25C1  1  0.324287133403  0.487934054561
  NH1 CG25C2  1  0.324287133403  0.487934054561
  NH1 CG251O  1  0.324287133403  0.487934054561
  NH1 CG252O  1  0.324287133403  0.487934054561
  NH1 CG2R61  1  0.315591961914  0.495057556250
  NH1 CG2R62  1  0.307360057758  0.561342505072
  NH1 CG2R63  1  0.307360057758  0.591706954497
  NH1 CG2R64  1  0.325178032121  0.374228336714
  NH1 CG2R66  1  0.307360057758  0.495057556250
  NH1 CG2R67  1  0.315591961914  0.495057556250
  NH1 CG2RC0  1  0.303796462886  0.588740986173
  NH1 CG2R71  1  0.315805777606  0.484333016013
  NH1 CG2RC7  1  0.303796462886  0.588740986173
  NH1 CG301  1  0.307360057758  0.187114168357
  NH1 CG302  1  0.342996006484  0.264619394603
  NH1 CG311  1  0.307360057758  0.187114168357
  NH1 CG312  1  0.320723538531  0.383469934154
  NH1 CG314  1  0.307360057758  0.187114168357
  NH1 CG321  1  0.307360057758  0.187114168357
  NH1 CG322  1  0.307360057758  0.458334236120
  NH1 CG323  1  0.334087019303  0.620587489400
  NH1 CG324  1  0.307360057758  0.187114168357
  NH1 CG331  1  0.307360057758  0.187114168357
  NH1 CG334  1  0.307360057758  0.187114168357
  NH1 CG3C50  1  0.307360057758  0.187114168357
  NH1 CG3C51  1  0.307360057758  0.187114168357
  NH1 CG3C52  1  0.307360057758  0.187114168357
  NH1 CG3C53  1  0.307360057758  0.187114168357
  NH1 CG3C54  1  0.307360057758  0.187114168357
  NH1 CG3C31  1  0.307360057758  0.187114168357
  NH1 CG3C41  1  0.307360057758  0.187114168357
  NH1 CG3RC1  1  0.307360057758  0.187114168357
  NH1 CG3AM0  1  0.313596348785  0.495057556250
  NH1 CG3AM1  1  0.314487247504  0.522581432506
  NH1 CG3AM2  1  0.315378146222  0.529238789206
  NH1 NG1T1  1  0.297560171859  0.793858183809
  NH1 NG2D1  1  0.302905564168  0.836800000000
  NH1 NG2S0  1  0.302905564168  0.018711416836
  NH1 NG2S1  1  0.276178602624  0.836800000000
  NH1 NG2S2  1  0.302905564168  0.836800000000
  NH1 NG2S3  1  0.302905564168  0.836800000000
  NH1 NG2O1  1  0.302905564168  0.836800000000
  NH1 NG2P1  1  0.302905564168  0.836800000000
  NH1 NG2R43  1  0.302905564168  0.836800000000
  NH1 NG2R50  1  0.302905564168  0.836800000000
  NH1 NG2R51  1  0.302905564168  0.836800000000
  NH1 NG2R52  1  0.302905564168  0.836800000000
  NH1 NG2R53  1  0.302905564168  0.836800000000
  NH1 NG2R57  1  0.302905564168  0.836800000000
  NH1 NG2R60  1  0.306469159040  0.458334236120
  NH1 NG2R61  1  0.302905564168  0.836800000000
  NH1 NG2R62  1  0.321614437249  0.418400000000
  NH1 NG2R67  1  0.302905564168  0.836800000000
  NH1 NG2RC0  1  0.302905564168  0.836800000000
  NH1 NG301  1  0.316269044940  0.350058555102
  NH1 NG311  1  0.316269044940  0.396929091904
  NH1 NG321  1  0.315378146222  0.458334236120
  NH1 NG331  1  0.314487247504  0.495057556250
  NH1 NG3C51  1  0.302905564168  0.836800000000
  NH1 NG3N1  1  0.320723538531  0.458334236120
  NH1 NG3P0  1  0.302905564168  0.836800000000
  NH1 NG3P1  1  0.302905564168  0.836800000000
  NH1 NG3P2  1  0.302905564168  0.836800000000
  NH1 NG3P3  1  0.302905564168  0.836800000000
  NH1 OG2D1  1  0.262815121851  0.648182492821
  NH1 OG2D2  1  0.289542083396  0.648182492821
  NH1 OG2D3  1  0.262815121851  0.648182492821
  NH1 OG2D4  1  0.289542083396  0.648182492821
  NH1 OG2D5  1  0.288829364421  0.760061344893
  NH1 OG2N1  1  0.289542083396  0.648182492821
  NH1 OG2P1  1  0.289542083396  0.648182492821
  NH1 OG2R50  1  0.289542083396  0.648182492821
  NH1 OG3R60  1  0.285087589805  0.591706954497
  NH1 OG301  1  0.285087589805  0.591706954497
  NH1 OG302  1  0.285087589805  0.591706954497
  NH1 OG303  1  0.285087589805  0.591706954497
  NH1 OG304  1  0.285087589805  0.591706954497
  NH1 OG311  1  0.295332925064  0.820106692766
  NH1 OG312  1  0.293996576986  0.648182492821
  NH1 OG3C31  1  0.285087589805  0.591706954497
  NH1 OG3C51  1  0.285087589805  0.591706954497
  NH1 OG3C61  1  0.285087589805  0.591706954497
  NH1 OGTIP3  1  0.295618012653  0.729745256593
  NH1 SG2D1  1  0.320723538531  1.406471374753
  NH1 SG2R50  1  0.316269044940  1.255200000000
  NH1 SG311  1  0.316269044940  1.255200000000
  NH1 SG301  1  0.314041798144  1.153449199575
  NH1 SG302  1  0.334087019303  1.282790109098
  NH1 SG3O1  1  0.325178032121  1.282790109098
  NH1 SG3O2  1  0.316269044940  1.106982348549
  NH1 SG3O3  1  0.316269044940  1.106982348549
  NH1  FGA1  1  0.283305792369  0.687501354180
  NH1  FGA2  1  0.283305792369  0.606319203061
  NH1  FGA3  1  0.280633096214  0.582763765517
  NH1  FGP1  1  0.280633096214  0.582763765517
  NH1  FGR1  1  0.289542083396  0.648182492821
  NH1 CLGA1  1  0.308250956477  1.095856615438
  NH1 CLGA3  1  0.308250956477  1.041807598360
  NH1 BRGA1  1  0.313596348785  1.296364985643
  NH1 BRGA2  1  0.320723538531  1.362211707482
  NH1 BRGA3  1  0.316269044940  1.375002708361
  NH1   SOD  1  0.263772837973  0.405222074029
  NH1   CLA  1  0.340323310330  0.724690057887
  NH1   PG0  1  0.329632525712  1.431148193584
  NH1   PG1  1  0.329632525712  1.431148193584
  NH1   PG2  1  0.329632525712  1.431148193584
  NH1  ALG1  1  0.316269044940  1.508562653654
  NH1   LPH  1  0.138089301312  0.000000000000
  NH1 CLGR1  1  0.303796462886  0.897368027066
  NH1 BRGR1  1  0.314487247504  1.058477578412
  NH1  IGR1  1  0.337650614175  1.349299456755
  NH1 SG2P1  1  0.324616765929  1.486115336359
  NH1 OG2S1  1  0.287724650011  0.705844644210
  NH1 SG2P2  1  0.321133351941  1.473219612576
  NH1 SEGD1  1  0.331859772507  1.476898661926
  NH1 BG201  1  0.365268474438  0.364752663595
  NH1 CC301  1  0.307360057758  0.187114168357
  NH1 CC3062  1  0.307360057758  0.187114168357
  NH1 CC311  1  0.307360057758  0.187114168357
  NH1 CC3161  1  0.307360057758  0.187114168357
  NH1 CC3162  1  0.307360057758  0.187114168357
  NH1 CC3163  1  0.307360057758  0.187114168357
  NH1 CC321  1  0.307360057758  0.187114168357
  NH1 CC3261  1  0.307360057758  0.187114168357
  NH1 CC3263  1  0.307360057758  0.187114168357
  NH1 CC331  1  0.307360057758  0.187114168357
  NH1 CC2O1  1  0.316269044940  0.620587489400
  NH1 CC2O2  1  0.316269044940  0.495057556250
  NH1 CC2O3  1  0.316269044940  0.561342505072
  NH1 CC2O4  1  0.298451070577  0.458334236120
  NH1 CC2O5  1  0.289542083396  0.585760000000
  NH1 OC2D1  1  0.262815121851  0.648182492821
  NH1 OC2D2  1  0.289542083396  0.648182492821
  NH1 OC2D3  1  0.262815121851  0.648182492821
  NH1 OC2D4  1  0.262815121851  0.648182492821
  NH1 OC3C61  1  0.285087589805  0.591706954497
  NH1 OC311  1  0.295332925064  0.820106692766
  NH1 NC2D1  1  0.276178602624  0.836800000000
  NH1  HCP1  1  0.158089977534  0.401315181871
  NH1  HCA1  1  0.257469729543  0.396929091904
  NH1  HCA2  1  0.257469729543  0.350058555102
  NH1  HCA3  1  0.257469729543  0.289876023155
  NH1 CC312  1  0.307360057758  0.187114168357
  NH1 CC322  1  0.307360057758  0.187114168357
  NH1  HCR1  1  0.209361198763  0.401315181871
  NH1 HCA3M  1  0.257469729543  0.289876023155
  NH1 CC321C  1  0.307360057758  0.187114168357
  NH1 CC321D  1  0.307360057758  0.187114168357
  NH1 CC311C  1  0.307360057758  0.187114168357
  NH1 CC311D  1  0.307360057758  0.187114168357
  NH1 OC301  1  0.285087589805  0.591706954497
  NH1 OC302  1  0.285087589805  0.591706954497
  NH1 HCP1M  1  0.158089977534  0.401315181871
  NH1 OC311M  1  0.295332925064  0.820106692766
  NH1 OC3C5M  1  0.285087589805  0.591706954497
  NH1 CC322C  1  0.307360057758  0.187114168357
  NH1 HCA2C2  1  0.253906134670  0.350058555102
  NH1 CC312C  1  0.307360057758  0.187114168357
  NH1 HCA1C2  1  0.257469729543  0.396929091904
  NH1 OC3C51  1  0.285087589805  0.591706954497
  NH1 CC3152  1  0.307360057758  0.187114168357
  NH1 CC3051  1  0.307360057758  0.187114168357
  NH1 CC3251  1  0.307360057758  0.187114168357
  NH1 CC3151  1  0.307360057758  0.187114168357
  NH1 CC3153  1  0.307360057758  0.187114168357
  NH1 OC2DP  1  0.289542083396  0.648182492821
  NH1 OC312  1  0.295778374423  0.729745256593
  NH1 OC30P  1  0.295778374423  0.729745256593
  NH1    PC  1  0.329632525712  1.431148193584
  NH1    SC  1  0.325178032121  1.282790109098
  NH1 CC312D  1  0.307360057758  0.187114168357
  NH1 OC303  1  0.285087589805  0.591706954497
  NH1 NC311  1  0.316269044940  0.396929091904
  NH1   HN1  1  0.158089977534  0.401315181871
  NH1   HN2  1  0.158089977534  0.401315181871
  NH1   HN3  1  0.236088160307  0.401315181871
  NH1   HN4  1  0.158089977534  0.401315181871
  NH1   HN5  1  0.158089977534  0.401315181871
  NH1   HN6  1  0.255687932106  0.277535162457
  NH1   HN7  1  0.255687932106  0.277535162457
  NH1   HN8  1  0.257469729543  0.313101890125
  NH1   HN9  1  0.257469729543  0.289876023155
  NH1   NN1  1  0.302905564168  0.836800000000
  NH1   NN2  1  0.302905564168  0.836800000000
  NH1  NN2B  1  0.302905564168  0.836800000000
  NH1  NN2G  1  0.302905564168  0.836800000000
  NH1  NN2U  1  0.302905564168  0.836800000000
  NH1   NN3  1  0.302905564168  0.836800000000
  NH1  NN3A  1  0.302905564168  0.836800000000
  NH1  NN3G  1  0.302905564168  0.836800000000
  NH1   NN4  1  0.302905564168  0.836800000000
  NH1   NN6  1  0.302905564168  0.836800000000
  NH1   ON1  1  0.289542083396  0.648182492821
  NH1  ON1C  1  0.289542083396  0.648182492821
  NH1   ON2  1  0.295778374423  0.729745256593
  NH1   ON3  1  0.289542083396  0.648182492821
  NH1   ON4  1  0.295778374423  0.729745256593
  NH1   ON5  1  0.295778374423  0.729745256593
  NH1   ON6  1  0.295778374423  0.729745256593
  NH1  ON6B  1  0.295778374423  0.729745256593
  NH1   CN1  1  0.307360057758  0.591706954497
  NH1  CN1T  1  0.307360057758  0.591706954497
  NH1   CN2  1  0.307360057758  0.591706954497
  NH1   CN3  1  0.307360057758  0.561342505072
  NH1  CN3T  1  0.307360057758  0.561342505072
  NH1   CN4  1  0.307360057758  0.512433254190
  NH1   CN5  1  0.307360057758  0.512433254190
  NH1  CN5G  1  0.307360057758  0.512433254190
  NH1   CN7  1  0.307360057758  0.187114168357
  NH1  CN7B  1  0.307360057758  0.187114168357
  NH1   CN8  1  0.307360057758  0.187114168357
  NH1  CN8B  1  0.307360057758  0.187114168357
  NH1   CN9  1  0.307360057758  0.187114168357
  NH1     P  1  0.329632525712  1.431148193584
  NH1    P2  1  0.329632525712  1.431148193584
  NH1    P3  1  0.329632525712  1.431148193584
  NH1    P4  1  0.329632525712  1.431148193584
  NH1   HOL  1  0.158089977534  0.401315181871
  NH1  HAL1  1  0.255687932106  0.277535162457
  NH1  HAL2  1  0.257469729543  0.313101890125
  NH1  HAL3  1  0.257469729543  0.289876023155
  NH1   HBL  1  0.255687932106  0.277535162457
  NH1   HCL  1  0.158089977534  0.401315181871
  NH1    HL  1  0.200452211582  0.401315181871
  NH1  HEL1  1  0.249451641079  0.329448489449
  NH1  HEL2  1  0.250342539797  0.301712530731
  NH1    CL  1  0.316269044940  0.495057556250
  NH1   CCL  1  0.316269044940  0.495057556250
  NH1  CTL1  1  0.307360057758  0.187114168357
  NH1  CTL2  1  0.307360057758  0.187114168357
  NH1  CTL3  1  0.307360057758  0.187114168357
  NH1  CTL5  1  0.307360057758  0.187114168357
  NH1  CEL1  1  0.324287133403  0.487934054561
  NH1  CEL2  1  0.323396234685  0.473365563598
  NH1  CRL1  1  0.307360057758  0.187114168357
  NH1  CRL2  1  0.307360057758  0.187114168357
  NH1   OBL  1  0.262815121851  0.648182492821
  NH1   OCL  1  0.289542083396  0.648182492821
  NH1   O2L  1  0.289542083396  0.648182492821
  NH1   OHL  1  0.295778374423  0.729745256593
  NH1   OSL  1  0.285087589805  0.591706954497
  NH1  OSLP  1  0.285087589805  0.591706954497
  NH1  NH3L  1  0.302905564168  0.836800000000
  NH1   NTL  1  0.302905564168  0.836800000000
  NH1    SL  1  0.325178032121  1.282790109098
  NH1    PL  1  0.329632525712  1.431148193584
  NH1 HCA1A  1  0.257469729543  0.396929091904
  NH1 HCA2A  1  0.257469729543  0.350058555102
  NH1 HCA3A  1  0.257469729543  0.289876023155
  NH1 CC30A  1  0.307360057758  0.187114168357
  NH1 CC31A  1  0.307360057758  0.187114168357
  NH1 CC32A  1  0.307360057758  0.187114168357
  NH1 CC33A  1  0.307360057758  0.187114168357
  NH1 CC326A  1  0.307360057758  0.187114168357
  NH1 HCA25A  1  0.253906134670  0.350058555102
  NH1 CC325A  1  0.307360057758  0.187114168357
  NH1 CC325B  1  0.307360057758  0.187114168357
  NH1 OC305A  1  0.285087589805  0.591706954497
  NH1 OC30A  1  0.285087589805  0.591706954497
  NH1  HSIO  1  0.158089977534  0.401315181871
  NH1  HSIA  1  0.255687932106  0.277535162457
  NH1   HAL  1  0.255687932106  0.277535162457
  NH1    AL  1  0.334087019303  1.508562653654
  NH1    SI  1  0.334087019303  1.449380115774
  NH1  SIH3  1  0.334087019303  1.449380115774
  NH1  OSIH  1  0.295778374423  0.729745256593
  NH1  OSIE  1  0.295778374423  0.729745256593
  NH1  OSIA  1  0.295778374423  0.729745256593
  NH1   OAL  1  0.295778374423  0.729745256593
  NH1    HT  1  0.158089977534  0.401315181871
  NH1    OT  1  0.295618012653  0.729745256593
  NH1   DUM  1  0.138089301312  0.000000000000
  NH1    CM  1  0.325178032121  0.620587489400
  NH1   CPA  1  0.298451070577  0.561342505072
  NH1   CPB  1  0.298451070577  0.561342505072
  NH1   CPM  1  0.298451070577  0.561342505072
  NH1   CST  1  0.277336770957  0.450630591061
  NH1  CT1X  1  0.307360057758  0.187114168357
  NH1  CT2X  1  0.307360057758  0.187114168357
  NH1  CT3X  1  0.307360057758  0.187114168357
  NH1    HB  1  0.255687932106  0.277535162457
  NH1   NPH  1  0.302905564168  0.836800000000
  NH1    OM  1  0.289542083396  0.648182492821
  NH1   OST  1  0.288829364421  0.760061344893
  NH1   POT  1  0.295221562724  0.551907505294
  NH1   CAL  1  0.259875156082  0.648182492821
  NH1    MG  1  0.243660799411  0.229167118060
  NH1   CES  1  0.325178032121  0.815611750774
  NH1    ZN  1  0.235197261589  0.935570841786
  NH1    FE  1  0.195997717991  0.000000000000
  NH1    HE  1  0.269942311597  0.272891757706
  NH1    NE  1  0.274396805187  0.548726455714
  NH1  CLAL  1  0.308090594707  0.324091246411
  NH1    AG  1  0.269719586917  3.995665235227
  NH1    AU  1  0.269541407173  4.303625872215
  NH1    CU  1  0.254618853645  4.065160275315
  NH1    NI  1  0.251767977746  4.447653008048
  NH1    PB  1  0.296891997820  3.202878645219
  NH1    PD  1  0.263661475634  4.640280474282
  NH1    PT  1  0.264819643967  5.225814325060
  NH1   CAP  1  0.315591961914  0.495057556250
  NH1    FA  1  0.289542083396  0.648182492821
  NH1    CN  1  0.293996576986  0.836800000000
  NH1    NC  1  0.302905564168  1.449380115774
  NH1   OCA  1  0.262815121851  0.648182492821
  NH1   COA  1  0.316269044940  0.620587489400
  NH1   CF1  1  0.307360057758  0.458334236120
  NH1   CF2  1  0.320723538531  0.383469934154
  NH1   CF3  1  0.342996006484  0.264619394603
  NH1   HF1  1  0.255687932106  0.313101890125
  NH1   HF2  1  0.253906134670  0.324091246411
  NH1    F1  1  0.283305792369  0.687501354180
  NH1    F2  1  0.283305792369  0.606319203061
  NH1    F3  1  0.280633096214  0.582763765517
  NH1    OX  1  0.289542083396  0.648182492821
  NH1    HX  1  0.158089977534  0.401315181871
  NH1  HPER  1  0.158089977534  0.401315181871
  NH1  OPER  1  0.287246237399  0.844795086046
  NH1   LIT  1  0.253683409990  0.090320146678
  NH1   RUB  1  0.307360057758  0.724690057887
  NH1   BAR  1  0.306469159040  0.724690057887
  NH1   CAD  1  0.258984257363  0.648182492821
  NH1  ON2B  1  0.295778374423  0.729745256593
  NH1    SP  1  0.334087019303  1.255200000000
  NH1   HNP  1  0.259091165210  0.324091246411
  NH1  HNE1  1  0.249451641079  0.329448489449
  NH1  HNE2  1  0.250342539797  0.301712530731
  NH1  CN3D  1  0.307360057758  0.561342505072
  NH1  CNE1  1  0.324287133403  0.487934054561
  NH1  CNE2  1  0.323396234685  0.473365563598
  NH1   CNA  1  0.315591961914  0.495057556250
  NH1  CNA2  1  0.307360057758  0.495057556250
  NH1   CNG  1  0.316269044940  0.620587489400
  NH1  NN1C  1  0.302905564168  0.836800000000
  NH1  NN2C  1  0.302905564168  0.836800000000
  NH1  NN3I  1  0.302905564168  0.836800000000
  NH1   NNG  1  0.302905564168  0.836800000000
  NH1   FNA  1  0.289542083396  0.648182492821
  NH1  ON2M  1  0.285087589805  0.591706954497
  NH1   CN6  1  0.307360057758  0.187114168357
  NH1  CN7E  1  0.307360057758  0.187114168357
  NH1  CT2P  1  0.307360057758  0.187114168357
  NH1  CTD1  1  0.307360057758  0.187114168357
  NH1  CPD1  1  0.307360057758  0.187114168357
  NH1  CC1A  1  0.324287133403  0.487934054561
  NH1  CC1B  1  0.324287133403  0.487934054561
  NH1   CC2  1  0.323396234685  0.473365563598
  NH1   NS1  1  0.302905564168  0.836800000000
  NH1   NS2  1  0.302905564168  0.836800000000
  NH1   NHL  1  0.276178602624  0.836800000000
  NH1  CTO1  1  0.307360057758  0.187114168357
  NH1  CEL3  1  0.324287133403  0.487934054561
  NH1  CTO2  1  0.307360057758  0.187114168357
  NH1  HN3B  1  0.218270185944  0.401315181871
  NH1  CN1A  1  0.316269044940  0.495057556250
  NH1  CN3A  1  0.298451070577  0.793858183809
  NH1  CN3B  1  0.298451070577  0.793858183809
  NH1  CN3C  1  0.298451070577  0.793858183809
    O     C  1  0.302905564168  0.480705002262
    O    CA  1  0.302228481142  0.383469934154
    O    CC  1  0.302905564168  0.383469934154
    O    CD  1  0.302905564168  0.383469934154
    O   CE1  1  0.310923652631  0.377952093472
    O   CE2  1  0.310032753913  0.366667388896
    O   CP1  1  0.293996576986  0.144938011577
    O   CP2  1  0.293996576986  0.144938011577
    O   CP3  1  0.293996576986  0.144938011577
    O  CPH1  1  0.285087589805  0.324091246411
    O  CPH2  1  0.285087589805  0.324091246411
    O    CS  1  0.320723538531  0.480705002262
    O   CPT  1  0.290432982114  0.456036806936
    O    CY  1  0.302014665450  0.391600943002
    O   CAI  1  0.302014665450  0.391600943002
    O    CT  1  0.293996576986  0.144938011577
    O   CT1  1  0.293996576986  0.144938011577
    O   CT2  1  0.293996576986  0.144938011577
    O  CT2A  1  0.293996576986  0.144938011577
    O   CT3  1  0.293996576986  0.144938011577
    O    C3  1  0.327405278917  0.204973301676
    O     H  1  0.144726496762  0.310857403193
    O    HA  1  0.242324451334  0.214977812437
    O   HB1  1  0.242324451334  0.214977812437
    O   HB2  1  0.244106248770  0.242527681224
    O   HE1  1  0.236088160307  0.255189702614
    O   HE2  1  0.236979059025  0.233705521373
    O    HC  1  0.144726496762  0.310857403193
    O    HP  1  0.245727684437  0.251040000000
    O   HR1  1  0.204906705172  0.310857403193
    O   HR2  1  0.187088730809  0.310857403193
    O   HR3  1  0.255509752363  0.128005785869
    O    HS  1  0.164816262856  0.458334236120
    O   HA1  1  0.244106248770  0.307459952514
    O   HA2  1  0.244106248770  0.267252488258
    O   HA3  1  0.244106248770  0.224537002029
    O     N  1  0.289542083396  0.014493801158
    O   NC2  1  0.289542083396  0.648182492821
    O   NH1  1  0.262815121851  0.648182492821
    O   NH2  1  0.289542083396  0.648182492821
    O   NH3  1  0.289542083396  0.648182492821
    O    NP  1  0.289542083396  0.648182492821
    O   NR1  1  0.289542083396  0.648182492821
    O   NR2  1  0.289542083396  0.648182492821
    O   NR3  1  0.289542083396  0.648182492821
    O    NY  1  0.289542083396  0.648182492821
    O     O  1  0.249451641079  0.502080000000
    O    OB  1  0.249451641079  0.502080000000
    O    OC  1  0.276178602624  0.502080000000
    O   OH1  1  0.282414893650  0.565258245152
    O    OS  1  0.282414893650  0.565258245152
    O     S  1  0.302905564168  0.972273739232
    O    SM  1  0.300678317372  0.893457908130
    O    SS  1  0.320723538531  0.993644945843
    O  HGA1  1  0.244106248770  0.307459952514
    O  HGA2  1  0.244106248770  0.271154190821
    O  HGA3  1  0.244106248770  0.224537002029
    O  HGA4  1  0.236088160307  0.255189702614
    O  HGA5  1  0.236979059025  0.233705521373
    O  HGA6  1  0.242324451334  0.242527681224
    O  HGA7  1  0.240542653898  0.251040000000
    O HGAAM0  1  0.238760856462  0.242527681224
    O HGAAM1  1  0.238760856462  0.242527681224
    O HGAAM2  1  0.236979059025  0.289876023155
    O  HGP1  1  0.144726496762  0.310857403193
    O  HGP2  1  0.144726496762  0.310857403193
    O  HGP3  1  0.164816262856  0.458334236120
    O  HGP4  1  0.144726496762  0.310857403193
    O  HGP5  1  0.187088730809  0.310857403193
    O HGPAM1  1  0.202679458377  0.137500270836
    O HGPAM2  1  0.202679458377  0.144938011577
    O HGPAM3  1  0.202234009018  0.158771636762
    O HGR51  1  0.245727684437  0.251040000000
    O HGR52  1  0.204906705172  0.310857403193
    O HGR53  1  0.187088730809  0.310857403193
    O HGR61  1  0.245727684437  0.251040000000
    O HGR62  1  0.222724679535  0.310857403193
    O HGR63  1  0.204906705172  0.310857403193
    O HGR71  1  0.245727684437  0.251040000000
    O HGTIP3  1  0.144726496762  0.310857403193
    O CG1T1  1  0.288651184677  0.592298365893
    O CG1T2  1  0.302237390129  0.465609837422
    O CG1N1  1  0.291323880832  0.614919905028
    O CG2D1  1  0.310923652631  0.377952093472
    O CG2D2  1  0.310032753913  0.366667388896
    O CG2D1O  1  0.310923652631  0.377952093472
    O CG2D2O  1  0.310923652631  0.377952093472
    O CG2DC1  1  0.310923652631  0.377952093472
    O CG2DC2  1  0.310923652631  0.377952093472
    O CG2DC3  1  0.310032753913  0.366667388896
    O CG2N1  1  0.302905564168  0.480705002262
    O CG2N2  1  0.302905564168  0.480705002262
    O CG2O1  1  0.302905564168  0.480705002262
    O CG2O2  1  0.276178602624  0.453727744975
    O CG2O3  1  0.302905564168  0.383469934154
    O CG2O4  1  0.285087589805  0.355024172698
    O CG2O5  1  0.302905564168  0.434814034732
    O CG2O6  1  0.302905564168  0.383469934154
    O CG2O7  1  0.263973290185  0.349056954894
    O CG2R51  1  0.311814551349  0.324091246411
    O CG2R52  1  0.320723538531  0.204973301676
    O CG2R53  1  0.320723538531  0.204973301676
    O CG2R57  1  0.311814551349  0.324091246411
    O CG25C1  1  0.310923652631  0.377952093472
    O CG25C2  1  0.310923652631  0.377952093472
    O CG251O  1  0.310923652631  0.377952093472
    O CG252O  1  0.310923652631  0.377952093472
    O CG2R61  1  0.302228481142  0.383469934154
    O CG2R62  1  0.293996576986  0.434814034732
    O CG2R63  1  0.293996576986  0.458334236120
    O CG2R64  1  0.311814551349  0.289876023155
    O CG2R66  1  0.293996576986  0.383469934154
    O CG2R67  1  0.302228481142  0.383469934154
    O CG2RC0  1  0.290432982114  0.456036806936
    O CG2R71  1  0.302442296834  0.375162741007
    O CG2RC7  1  0.290432982114  0.456036806936
    O CG301  1  0.293996576986  0.144938011577
    O CG302  1  0.329632525712  0.204973301676
    O CG311  1  0.293996576986  0.144938011577
    O CG312  1  0.307360057758  0.297034533750
    O CG314  1  0.293996576986  0.144938011577
    O CG321  1  0.293996576986  0.144938011577
    O CG322  1  0.293996576986  0.355024172698
    O CG323  1  0.320723538531  0.480705002262
    O CG324  1  0.293996576986  0.144938011577
    O CG331  1  0.293996576986  0.144938011577
    O CG334  1  0.293996576986  0.144938011577
    O CG3C50  1  0.293996576986  0.144938011577
    O CG3C51  1  0.293996576986  0.144938011577
    O CG3C52  1  0.293996576986  0.144938011577
    O CG3C53  1  0.293996576986  0.144938011577
    O CG3C54  1  0.293996576986  0.144938011577
    O CG3C31  1  0.293996576986  0.144938011577
    O CG3C41  1  0.293996576986  0.144938011577
    O CG3RC1  1  0.293996576986  0.144938011577
    O CG3AM0  1  0.300232868013  0.383469934154
    O CG3AM1  1  0.301123766731  0.404789837027
    O CG3AM2  1  0.302014665450  0.409946603352
    O NG1T1  1  0.284196691087  0.614919905028
    O NG2D1  1  0.289542083396  0.648182492821
    O NG2S0  1  0.289542083396  0.014493801158
    O NG2S1  1  0.262815121851  0.648182492821
    O NG2S2  1  0.289542083396  0.648182492821
    O NG2S3  1  0.289542083396  0.648182492821
    O NG2O1  1  0.289542083396  0.648182492821
    O NG2P1  1  0.289542083396  0.648182492821
    O NG2R43  1  0.289542083396  0.648182492821
    O NG2R50  1  0.289542083396  0.648182492821
    O NG2R51  1  0.289542083396  0.648182492821
    O NG2R52  1  0.289542083396  0.648182492821
    O NG2R53  1  0.289542083396  0.648182492821
    O NG2R57  1  0.289542083396  0.648182492821
    O NG2R60  1  0.293105678268  0.355024172698
    O NG2R61  1  0.289542083396  0.648182492821
    O NG2R62  1  0.308250956477  0.324091246411
    O NG2R67  1  0.289542083396  0.648182492821
    O NG2RC0  1  0.289542083396  0.648182492821
    O NG301  1  0.302905564168  0.271154190821
    O NG311  1  0.302905564168  0.307459952514
    O NG321  1  0.302014665450  0.355024172698
    O NG331  1  0.301123766731  0.383469934154
    O NG3C51  1  0.289542083396  0.648182492821
    O NG3N1  1  0.307360057758  0.355024172698
    O NG3P0  1  0.289542083396  0.648182492821
    O NG3P1  1  0.289542083396  0.648182492821
    O NG3P2  1  0.289542083396  0.648182492821
    O NG3P3  1  0.289542083396  0.648182492821
    O OG2D1  1  0.249451641079  0.502080000000
    O OG2D2  1  0.276178602624  0.502080000000
    O OG2D3  1  0.249451641079  0.502080000000
    O OG2D4  1  0.276178602624  0.502080000000
    O OG2D5  1  0.275465883649  0.588740986173
    O OG2N1  1  0.276178602624  0.502080000000
    O OG2P1  1  0.276178602624  0.502080000000
    O OG2R50  1  0.276178602624  0.502080000000
    O OG3R60  1  0.271724109033  0.458334236120
    O OG301  1  0.271724109033  0.458334236120
    O OG302  1  0.271724109033  0.458334236120
    O OG303  1  0.271724109033  0.458334236120
    O OG304  1  0.271724109033  0.458334236120
    O OG311  1  0.281969444291  0.635251912639
    O OG312  1  0.280633096214  0.502080000000
    O OG3C31  1  0.271724109033  0.458334236120
    O OG3C51  1  0.271724109033  0.458334236120
    O OG3C61  1  0.271724109033  0.458334236120
    O OGTIP3  1  0.282254531881  0.565258245152
    O SG2D1  1  0.307360057758  1.089448042267
    O SG2R50  1  0.302905564168  0.972273739232
    O SG311  1  0.302905564168  0.972273739232
    O SG301  1  0.300678317372  0.893457908130
    O SG302  1  0.320723538531  0.993644945843
    O SG3O1  1  0.311814551349  0.993644945843
    O SG3O2  1  0.302905564168  0.857464840095
    O SG3O3  1  0.302905564168  0.857464840095
    O  FGA1  1  0.269942311597  0.532536259047
    O  FGA2  1  0.269942311597  0.469652835188
    O  FGA3  1  0.267269615442  0.451406871724
    O  FGP1  1  0.267269615442  0.451406871724
    O  FGR1  1  0.276178602624  0.502080000000
    O CLGA1  1  0.294887475704  0.848846884285
    O CLGA3  1  0.294887475704  0.806980695680
    O BRGA1  1  0.300232868013  1.004160000000
    O BRGA2  1  0.307360057758  1.055164651417
    O BRGA3  1  0.302905564168  1.065072518094
    O   SOD  1  0.250409357201  0.313883668846
    O   CLA  1  0.326959829558  0.561342505072
    O   PG0  1  0.316269044940  1.108562623941
    O   PG1  1  0.316269044940  1.108562623941
    O   PG2  1  0.316269044940  1.108562623941
    O  ALG1  1  0.302905564168  1.168527606863
    O   LPH  1  0.124725820540  0.000000000000
    O CLGR1  1  0.290432982114  0.695098284849
    O BRGR1  1  0.301123766731  0.819893206704
    O  IGR1  1  0.324287133403  1.045162865012
    O SG2P1  1  0.311253285157  1.151139989652
    O OG2S1  1  0.274361169238  0.546744910407
    O SG2P2  1  0.307769871169  1.141151004963
    O SEGD1  1  0.318496291735  1.144000784335
    O BG201  1  0.351904993665  0.282536198318
    O CC301  1  0.293996576986  0.144938011577
    O CC3062  1  0.293996576986  0.144938011577
    O CC311  1  0.293996576986  0.144938011577
    O CC3161  1  0.293996576986  0.144938011577
    O CC3162  1  0.293996576986  0.144938011577
    O CC3163  1  0.293996576986  0.144938011577
    O CC321  1  0.293996576986  0.144938011577
    O CC3261  1  0.293996576986  0.144938011577
    O CC3263  1  0.293996576986  0.144938011577
    O CC331  1  0.293996576986  0.144938011577
    O CC2O1  1  0.302905564168  0.480705002262
    O CC2O2  1  0.302905564168  0.383469934154
    O CC2O3  1  0.302905564168  0.434814034732
    O CC2O4  1  0.285087589805  0.355024172698
    O CC2O5  1  0.276178602624  0.453727744975
    O OC2D1  1  0.249451641079  0.502080000000
    O OC2D2  1  0.276178602624  0.502080000000
    O OC2D3  1  0.249451641079  0.502080000000
    O OC2D4  1  0.249451641079  0.502080000000
    O OC3C61  1  0.271724109033  0.458334236120
    O OC311  1  0.281969444291  0.635251912639
    O NC2D1  1  0.262815121851  0.648182492821
    O  HCP1  1  0.144726496762  0.310857403193
    O  HCA1  1  0.244106248770  0.307459952514
    O  HCA2  1  0.244106248770  0.271154190821
    O  HCA3  1  0.244106248770  0.224537002029
    O CC312  1  0.293996576986  0.144938011577
    O CC322  1  0.293996576986  0.144938011577
    O  HCR1  1  0.195997717991  0.310857403193
    O HCA3M  1  0.244106248770  0.224537002029
    O CC321C  1  0.293996576986  0.144938011577
    O CC321D  1  0.293996576986  0.144938011577
    O CC311C  1  0.293996576986  0.144938011577
    O CC311D  1  0.293996576986  0.144938011577
    O OC301  1  0.271724109033  0.458334236120
    O OC302  1  0.271724109033  0.458334236120
    O HCP1M  1  0.144726496762  0.310857403193
    O OC311M  1  0.281969444291  0.635251912639
    O OC3C5M  1  0.271724109033  0.458334236120
    O CC322C  1  0.293996576986  0.144938011577
    O HCA2C2  1  0.240542653898  0.271154190821
    O CC312C  1  0.293996576986  0.144938011577
    O HCA1C2  1  0.244106248770  0.307459952514
    O OC3C51  1  0.271724109033  0.458334236120
    O CC3152  1  0.293996576986  0.144938011577
    O CC3051  1  0.293996576986  0.144938011577
    O CC3251  1  0.293996576986  0.144938011577
    O CC3151  1  0.293996576986  0.144938011577
    O CC3153  1  0.293996576986  0.144938011577
    O OC2DP  1  0.276178602624  0.502080000000
    O OC312  1  0.282414893650  0.565258245152
    O OC30P  1  0.282414893650  0.565258245152
    O    PC  1  0.316269044940  1.108562623941
    O    SC  1  0.311814551349  0.993644945843
    O CC312D  1  0.293996576986  0.144938011577
    O OC303  1  0.271724109033  0.458334236120
    O NC311  1  0.302905564168  0.307459952514
    O   HN1  1  0.144726496762  0.310857403193
    O   HN2  1  0.144726496762  0.310857403193
    O   HN3  1  0.222724679535  0.310857403193
    O   HN4  1  0.144726496762  0.310857403193
    O   HN5  1  0.144726496762  0.310857403193
    O   HN6  1  0.242324451334  0.214977812437
    O   HN7  1  0.242324451334  0.214977812437
    O   HN8  1  0.244106248770  0.242527681224
    O   HN9  1  0.244106248770  0.224537002029
    O   NN1  1  0.289542083396  0.648182492821
    O   NN2  1  0.289542083396  0.648182492821
    O  NN2B  1  0.289542083396  0.648182492821
    O  NN2G  1  0.289542083396  0.648182492821
    O  NN2U  1  0.289542083396  0.648182492821
    O   NN3  1  0.289542083396  0.648182492821
    O  NN3A  1  0.289542083396  0.648182492821
    O  NN3G  1  0.289542083396  0.648182492821
    O   NN4  1  0.289542083396  0.648182492821
    O   NN6  1  0.289542083396  0.648182492821
    O   ON1  1  0.276178602624  0.502080000000
    O  ON1C  1  0.276178602624  0.502080000000
    O   ON2  1  0.282414893650  0.565258245152
    O   ON3  1  0.276178602624  0.502080000000
    O   ON4  1  0.282414893650  0.565258245152
    O   ON5  1  0.282414893650  0.565258245152
    O   ON6  1  0.282414893650  0.565258245152
    O  ON6B  1  0.282414893650  0.565258245152
    O   CN1  1  0.293996576986  0.458334236120
    O  CN1T  1  0.293996576986  0.458334236120
    O   CN2  1  0.293996576986  0.458334236120
    O   CN3  1  0.293996576986  0.434814034732
    O  CN3T  1  0.293996576986  0.434814034732
    O   CN4  1  0.293996576986  0.396929091904
    O   CN5  1  0.293996576986  0.396929091904
    O  CN5G  1  0.293996576986  0.396929091904
    O   CN7  1  0.293996576986  0.144938011577
    O  CN7B  1  0.293996576986  0.144938011577
    O   CN8  1  0.293996576986  0.144938011577
    O  CN8B  1  0.293996576986  0.144938011577
    O   CN9  1  0.293996576986  0.144938011577
    O     P  1  0.316269044940  1.108562623941
    O    P2  1  0.316269044940  1.108562623941
    O    P3  1  0.316269044940  1.108562623941
    O    P4  1  0.316269044940  1.108562623941
    O   HOL  1  0.144726496762  0.310857403193
    O  HAL1  1  0.242324451334  0.214977812437
    O  HAL2  1  0.244106248770  0.242527681224
    O  HAL3  1  0.244106248770  0.224537002029
    O   HBL  1  0.242324451334  0.214977812437
    O   HCL  1  0.144726496762  0.310857403193
    O    HL  1  0.187088730809  0.310857403193
    O  HEL1  1  0.236088160307  0.255189702614
    O  HEL2  1  0.236979059025  0.233705521373
    O    CL  1  0.302905564168  0.383469934154
    O   CCL  1  0.302905564168  0.383469934154
    O  CTL1  1  0.293996576986  0.144938011577
    O  CTL2  1  0.293996576986  0.144938011577
    O  CTL3  1  0.293996576986  0.144938011577
    O  CTL5  1  0.293996576986  0.144938011577
    O  CEL1  1  0.310923652631  0.377952093472
    O  CEL2  1  0.310032753913  0.366667388896
    O  CRL1  1  0.293996576986  0.144938011577
    O  CRL2  1  0.293996576986  0.144938011577
    O   OBL  1  0.249451641079  0.502080000000
    O   OCL  1  0.276178602624  0.502080000000
    O   O2L  1  0.276178602624  0.502080000000
    O   OHL  1  0.282414893650  0.565258245152
    O   OSL  1  0.271724109033  0.458334236120
    O  OSLP  1  0.271724109033  0.458334236120
    O  NH3L  1  0.289542083396  0.648182492821
    O   NTL  1  0.289542083396  0.648182492821
    O    SL  1  0.311814551349  0.993644945843
    O    PL  1  0.316269044940  1.108562623941
    O HCA1A  1  0.244106248770  0.307459952514
    O HCA2A  1  0.244106248770  0.271154190821
    O HCA3A  1  0.244106248770  0.224537002029
    O CC30A  1  0.293996576986  0.144938011577
    O CC31A  1  0.293996576986  0.144938011577
    O CC32A  1  0.293996576986  0.144938011577
    O CC33A  1  0.293996576986  0.144938011577
    O CC326A  1  0.293996576986  0.144938011577
    O HCA25A  1  0.240542653898  0.271154190821
    O CC325A  1  0.293996576986  0.144938011577
    O CC325B  1  0.293996576986  0.144938011577
    O OC305A  1  0.271724109033  0.458334236120
    O OC30A  1  0.271724109033  0.458334236120
    O  HSIO  1  0.144726496762  0.310857403193
    O  HSIA  1  0.242324451334  0.214977812437
    O   HAL  1  0.242324451334  0.214977812437
    O    AL  1  0.320723538531  1.168527606863
    O    SI  1  0.320723538531  1.122685010143
    O  SIH3  1  0.320723538531  1.122685010143
    O  OSIH  1  0.282414893650  0.565258245152
    O  OSIE  1  0.282414893650  0.565258245152
    O  OSIA  1  0.282414893650  0.565258245152
    O   OAL  1  0.282414893650  0.565258245152
    O    HT  1  0.144726496762  0.310857403193
    O    OT  1  0.282254531881  0.565258245152
    O   DUM  1  0.124725820540  0.000000000000
    O    CM  1  0.311814551349  0.480705002262
    O   CPA  1  0.285087589805  0.434814034732
    O   CPB  1  0.285087589805  0.434814034732
    O   CPM  1  0.285087589805  0.434814034732
    O   CST  1  0.263973290185  0.349056954894
    O  CT1X  1  0.293996576986  0.144938011577
    O  CT2X  1  0.293996576986  0.144938011577
    O  CT3X  1  0.293996576986  0.144938011577
    O    HB  1  0.242324451334  0.214977812437
    O   NPH  1  0.289542083396  0.648182492821
    O    OM  1  0.276178602624  0.502080000000
    O   OST  1  0.275465883649  0.588740986173
    O   POT  1  0.281858081952  0.427505715330
    O   CAL  1  0.246511675309  0.502080000000
    O    MG  1  0.230297318639  0.177512086349
    O   CES  1  0.311814551349  0.631770145543
    O    ZN  1  0.221833780817  0.724690057887
    O    FE  1  0.182634237219  0.000000000000
    O    HE  1  0.256578830824  0.211381046583
    O    NE  1  0.261033324415  0.425041684920
    O  CLAL  1  0.294727113935  0.251040000000
    O    AG  1  0.256356106145  3.095028982611
    O    AU  1  0.256177926401  3.333574266279
    O    CU  1  0.241255372872  3.148859609192
    O    NI  1  0.238404496974  3.445137205976
    O    PB  1  0.283528517048  2.480939130571
    O    PD  1  0.250297994862  3.594345799725
    O    PT  1  0.251456163195  4.047898370266
    O   CAP  1  0.302228481142  0.383469934154
    O    FA  1  0.276178602624  0.502080000000
    O    CN  1  0.280633096214  0.648182492821
    O    NC  1  0.289542083396  1.122685010143
    O   OCA  1  0.249451641079  0.502080000000
    O   COA  1  0.302905564168  0.480705002262
    O   CF1  1  0.293996576986  0.355024172698
    O   CF2  1  0.307360057758  0.297034533750
    O   CF3  1  0.329632525712  0.204973301676
    O   HF1  1  0.242324451334  0.242527681224
    O   HF2  1  0.240542653898  0.251040000000
    O    F1  1  0.269942311597  0.532536259047
    O    F2  1  0.269942311597  0.469652835188
    O    F3  1  0.267269615442  0.451406871724
    O    OX  1  0.276178602624  0.502080000000
    O    HX  1  0.144726496762  0.310857403193
    O  HPER  1  0.144726496762  0.310857403193
    O  OPER  1  0.273882756627  0.654375459843
    O   LIT  1  0.240319929218  0.069961684782
    O   RUB  1  0.293996576986  0.561342505072
    O   BAR  1  0.293105678268  0.561342505072
    O   CAD  1  0.245620776591  0.502080000000
    O  ON2B  1  0.282414893650  0.565258245152
    O    SP  1  0.320723538531  0.972273739232
    O   HNP  1  0.245727684437  0.251040000000
    O  HNE1  1  0.236088160307  0.255189702614
    O  HNE2  1  0.236979059025  0.233705521373
    O  CN3D  1  0.293996576986  0.434814034732
    O  CNE1  1  0.310923652631  0.377952093472
    O  CNE2  1  0.310032753913  0.366667388896
    O   CNA  1  0.302228481142  0.383469934154
    O  CNA2  1  0.293996576986  0.383469934154
    O   CNG  1  0.302905564168  0.480705002262
    O  NN1C  1  0.289542083396  0.648182492821
    O  NN2C  1  0.289542083396  0.648182492821
    O  NN3I  1  0.289542083396  0.648182492821
    O   NNG  1  0.289542083396  0.648182492821
    O   FNA  1  0.276178602624  0.502080000000
    O  ON2M  1  0.271724109033  0.458334236120
    O   CN6  1  0.293996576986  0.144938011577
    O  CN7E  1  0.293996576986  0.144938011577
    O  CT2P  1  0.293996576986  0.144938011577
    O  CTD1  1  0.293996576986  0.144938011577
    O  CPD1  1  0.293996576986  0.144938011577
    O  CC1A  1  0.310923652631  0.377952093472
    O  CC1B  1  0.310923652631  0.377952093472
    O   CC2  1  0.310032753913  0.366667388896
    O   NS1  1  0.289542083396  0.648182492821
    O   NS2  1  0.289542083396  0.648182492821
    O   NHL  1  0.262815121851  0.648182492821
    O  CTO1  1  0.293996576986  0.144938011577
    O  CEL3  1  0.310923652631  0.377952093472
    O  CTO2  1  0.293996576986  0.144938011577
    O  HN3B  1  0.204906705172  0.310857403193
    O  CN1A  1  0.302905564168  0.383469934154
    O  CN3A  1  0.285087589805  0.614919905028
    O  CN3B  1  0.285087589805  0.614919905028
    O  CN3C  1  0.285087589805  0.614919905028
   OB     C  1  0.302905564168  0.480705002262
   OB    CA  1  0.302228481142  0.383469934154
   OB    CC  1  0.302905564168  0.383469934154
   OB    CD  1  0.302905564168  0.383469934154
   OB   CE1  1  0.310923652631  0.377952093472
   OB   CE2  1  0.310032753913  0.366667388896
   OB   CP1  1  0.293996576986  0.144938011577
   OB   CP2  1  0.293996576986  0.144938011577
   OB   CP3  1  0.293996576986  0.144938011577
   OB  CPH1  1  0.285087589805  0.324091246411
   OB  CPH2  1  0.285087589805  0.324091246411
   OB    CS  1  0.320723538531  0.480705002262
   OB   CPT  1  0.290432982114  0.456036806936
   OB    CY  1  0.302014665450  0.391600943002
   OB   CAI  1  0.302014665450  0.391600943002
   OB    CT  1  0.293996576986  0.144938011577
   OB   CT1  1  0.293996576986  0.144938011577
   OB   CT2  1  0.293996576986  0.144938011577
   OB  CT2A  1  0.293996576986  0.144938011577
   OB   CT3  1  0.293996576986  0.144938011577
   OB    C3  1  0.327405278917  0.204973301676
   OB     H  1  0.144726496762  0.310857403193
   OB    HA  1  0.242324451334  0.214977812437
   OB   HB1  1  0.242324451334  0.214977812437
   OB   HB2  1  0.244106248770  0.242527681224
   OB   HE1  1  0.236088160307  0.255189702614
   OB   HE2  1  0.236979059025  0.233705521373
   OB    HC  1  0.144726496762  0.310857403193
   OB    HP  1  0.245727684437  0.251040000000
   OB   HR1  1  0.204906705172  0.310857403193
   OB   HR2  1  0.187088730809  0.310857403193
   OB   HR3  1  0.255509752363  0.128005785869
   OB    HS  1  0.164816262856  0.458334236120
   OB   HA1  1  0.244106248770  0.307459952514
   OB   HA2  1  0.244106248770  0.267252488258
   OB   HA3  1  0.244106248770  0.224537002029
   OB     N  1  0.289542083396  0.014493801158
   OB   NC2  1  0.289542083396  0.648182492821
   OB   NH1  1  0.262815121851  0.648182492821
   OB   NH2  1  0.289542083396  0.648182492821
   OB   NH3  1  0.289542083396  0.648182492821
   OB    NP  1  0.289542083396  0.648182492821
   OB   NR1  1  0.289542083396  0.648182492821
   OB   NR2  1  0.289542083396  0.648182492821
   OB   NR3  1  0.289542083396  0.648182492821
   OB    NY  1  0.289542083396  0.648182492821
   OB     O  1  0.249451641079  0.502080000000
   OB    OB  1  0.249451641079  0.502080000000
   OB    OC  1  0.276178602624  0.502080000000
   OB   OH1  1  0.282414893650  0.565258245152
   OB    OS  1  0.282414893650  0.565258245152
   OB     S  1  0.302905564168  0.972273739232
   OB    SM  1  0.300678317372  0.893457908130
   OB    SS  1  0.320723538531  0.993644945843
   OB  HGA1  1  0.244106248770  0.307459952514
   OB  HGA2  1  0.244106248770  0.271154190821
   OB  HGA3  1  0.244106248770  0.224537002029
   OB  HGA4  1  0.236088160307  0.255189702614
   OB  HGA5  1  0.236979059025  0.233705521373
   OB  HGA6  1  0.242324451334  0.242527681224
   OB  HGA7  1  0.240542653898  0.251040000000
   OB HGAAM0  1  0.238760856462  0.242527681224
   OB HGAAM1  1  0.238760856462  0.242527681224
   OB HGAAM2  1  0.236979059025  0.289876023155
   OB  HGP1  1  0.144726496762  0.310857403193
   OB  HGP2  1  0.144726496762  0.310857403193
   OB  HGP3  1  0.164816262856  0.458334236120
   OB  HGP4  1  0.144726496762  0.310857403193
   OB  HGP5  1  0.187088730809  0.310857403193
   OB HGPAM1  1  0.202679458377  0.137500270836
   OB HGPAM2  1  0.202679458377  0.144938011577
   OB HGPAM3  1  0.202234009018  0.158771636762
   OB HGR51  1  0.245727684437  0.251040000000
   OB HGR52  1  0.204906705172  0.310857403193
   OB HGR53  1  0.187088730809  0.310857403193
   OB HGR61  1  0.245727684437  0.251040000000
   OB HGR62  1  0.222724679535  0.310857403193
   OB HGR63  1  0.204906705172  0.310857403193
   OB HGR71  1  0.245727684437  0.251040000000
   OB HGTIP3  1  0.144726496762  0.310857403193
   OB CG1T1  1  0.288651184677  0.592298365893
   OB CG1T2  1  0.302237390129  0.465609837422
   OB CG1N1  1  0.291323880832  0.614919905028
   OB CG2D1  1  0.310923652631  0.377952093472
   OB CG2D2  1  0.310032753913  0.366667388896
   OB CG2D1O  1  0.310923652631  0.377952093472
   OB CG2D2O  1  0.310923652631  0.377952093472
   OB CG2DC1  1  0.310923652631  0.377952093472
   OB CG2DC2  1  0.310923652631  0.377952093472
   OB CG2DC3  1  0.310032753913  0.366667388896
   OB CG2N1  1  0.302905564168  0.480705002262
   OB CG2N2  1  0.302905564168  0.480705002262
   OB CG2O1  1  0.302905564168  0.480705002262
   OB CG2O2  1  0.276178602624  0.453727744975
   OB CG2O3  1  0.302905564168  0.383469934154
   OB CG2O4  1  0.285087589805  0.355024172698
   OB CG2O5  1  0.302905564168  0.434814034732
   OB CG2O6  1  0.302905564168  0.383469934154
   OB CG2O7  1  0.263973290185  0.349056954894
   OB CG2R51  1  0.311814551349  0.324091246411
   OB CG2R52  1  0.320723538531  0.204973301676
   OB CG2R53  1  0.320723538531  0.204973301676
   OB CG2R57  1  0.311814551349  0.324091246411
   OB CG25C1  1  0.310923652631  0.377952093472
   OB CG25C2  1  0.310923652631  0.377952093472
   OB CG251O  1  0.310923652631  0.377952093472
   OB CG252O  1  0.310923652631  0.377952093472
   OB CG2R61  1  0.302228481142  0.383469934154
   OB CG2R62  1  0.293996576986  0.434814034732
   OB CG2R63  1  0.293996576986  0.458334236120
   OB CG2R64  1  0.311814551349  0.289876023155
   OB CG2R66  1  0.293996576986  0.383469934154
   OB CG2R67  1  0.302228481142  0.383469934154
   OB CG2RC0  1  0.290432982114  0.456036806936
   OB CG2R71  1  0.302442296834  0.375162741007
   OB CG2RC7  1  0.290432982114  0.456036806936
   OB CG301  1  0.293996576986  0.144938011577
   OB CG302  1  0.329632525712  0.204973301676
   OB CG311  1  0.293996576986  0.144938011577
   OB CG312  1  0.307360057758  0.297034533750
   OB CG314  1  0.293996576986  0.144938011577
   OB CG321  1  0.293996576986  0.144938011577
   OB CG322  1  0.293996576986  0.355024172698
   OB CG323  1  0.320723538531  0.480705002262
   OB CG324  1  0.293996576986  0.144938011577
   OB CG331  1  0.293996576986  0.144938011577
   OB CG334  1  0.293996576986  0.144938011577
   OB CG3C50  1  0.293996576986  0.144938011577
   OB CG3C51  1  0.293996576986  0.144938011577
   OB CG3C52  1  0.293996576986  0.144938011577
   OB CG3C53  1  0.293996576986  0.144938011577
   OB CG3C54  1  0.293996576986  0.144938011577
   OB CG3C31  1  0.293996576986  0.144938011577
   OB CG3C41  1  0.293996576986  0.144938011577
   OB CG3RC1  1  0.293996576986  0.144938011577
   OB CG3AM0  1  0.300232868013  0.383469934154
   OB CG3AM1  1  0.301123766731  0.404789837027
   OB CG3AM2  1  0.302014665450  0.409946603352
   OB NG1T1  1  0.284196691087  0.614919905028
   OB NG2D1  1  0.289542083396  0.648182492821
   OB NG2S0  1  0.289542083396  0.014493801158
   OB NG2S1  1  0.262815121851  0.648182492821
   OB NG2S2  1  0.289542083396  0.648182492821
   OB NG2S3  1  0.289542083396  0.648182492821
   OB NG2O1  1  0.289542083396  0.648182492821
   OB NG2P1  1  0.289542083396  0.648182492821
   OB NG2R43  1  0.289542083396  0.648182492821
   OB NG2R50  1  0.289542083396  0.648182492821
   OB NG2R51  1  0.289542083396  0.648182492821
   OB NG2R52  1  0.289542083396  0.648182492821
   OB NG2R53  1  0.289542083396  0.648182492821
   OB NG2R57  1  0.289542083396  0.648182492821
   OB NG2R60  1  0.293105678268  0.355024172698
   OB NG2R61  1  0.289542083396  0.648182492821
   OB NG2R62  1  0.308250956477  0.324091246411
   OB NG2R67  1  0.289542083396  0.648182492821
   OB NG2RC0  1  0.289542083396  0.648182492821
   OB NG301  1  0.302905564168  0.271154190821
   OB NG311  1  0.302905564168  0.307459952514
   OB NG321  1  0.302014665450  0.355024172698
   OB NG331  1  0.301123766731  0.383469934154
   OB NG3C51  1  0.289542083396  0.648182492821
   OB NG3N1  1  0.307360057758  0.355024172698
   OB NG3P0  1  0.289542083396  0.648182492821
   OB NG3P1  1  0.289542083396  0.648182492821
   OB NG3P2  1  0.289542083396  0.648182492821
   OB NG3P3  1  0.289542083396  0.648182492821
   OB OG2D1  1  0.249451641079  0.502080000000
   OB OG2D2  1  0.276178602624  0.502080000000
   OB OG2D3  1  0.249451641079  0.502080000000
   OB OG2D4  1  0.276178602624  0.502080000000
   OB OG2D5  1  0.275465883649  0.588740986173
   OB OG2N1  1  0.276178602624  0.502080000000
   OB OG2P1  1  0.276178602624  0.502080000000
   OB OG2R50  1  0.276178602624  0.502080000000
   OB OG3R60  1  0.271724109033  0.458334236120
   OB OG301  1  0.271724109033  0.458334236120
   OB OG302  1  0.271724109033  0.458334236120
   OB OG303  1  0.271724109033  0.458334236120
   OB OG304  1  0.271724109033  0.458334236120
   OB OG311  1  0.281969444291  0.635251912639
   OB OG312  1  0.280633096214  0.502080000000
   OB OG3C31  1  0.271724109033  0.458334236120
   OB OG3C51  1  0.271724109033  0.458334236120
   OB OG3C61  1  0.271724109033  0.458334236120
   OB OGTIP3  1  0.282254531881  0.565258245152
   OB SG2D1  1  0.307360057758  1.089448042267
   OB SG2R50  1  0.302905564168  0.972273739232
   OB SG311  1  0.302905564168  0.972273739232
   OB SG301  1  0.300678317372  0.893457908130
   OB SG302  1  0.320723538531  0.993644945843
   OB SG3O1  1  0.311814551349  0.993644945843
   OB SG3O2  1  0.302905564168  0.857464840095
   OB SG3O3  1  0.302905564168  0.857464840095
   OB  FGA1  1  0.269942311597  0.532536259047
   OB  FGA2  1  0.269942311597  0.469652835188
   OB  FGA3  1  0.267269615442  0.451406871724
   OB  FGP1  1  0.267269615442  0.451406871724
   OB  FGR1  1  0.276178602624  0.502080000000
   OB CLGA1  1  0.294887475704  0.848846884285
   OB CLGA3  1  0.294887475704  0.806980695680
   OB BRGA1  1  0.300232868013  1.004160000000
   OB BRGA2  1  0.307360057758  1.055164651417
   OB BRGA3  1  0.302905564168  1.065072518094
   OB   SOD  1  0.250409357201  0.313883668846
   OB   CLA  1  0.326959829558  0.561342505072
   OB   PG0  1  0.316269044940  1.108562623941
   OB   PG1  1  0.316269044940  1.108562623941
   OB   PG2  1  0.316269044940  1.108562623941
   OB  ALG1  1  0.302905564168  1.168527606863
   OB   LPH  1  0.124725820540  0.000000000000
   OB CLGR1  1  0.290432982114  0.695098284849
   OB BRGR1  1  0.301123766731  0.819893206704
   OB  IGR1  1  0.324287133403  1.045162865012
   OB SG2P1  1  0.311253285157  1.151139989652
   OB OG2S1  1  0.274361169238  0.546744910407
   OB SG2P2  1  0.307769871169  1.141151004963
   OB SEGD1  1  0.318496291735  1.144000784335
   OB BG201  1  0.351904993665  0.282536198318
   OB CC301  1  0.293996576986  0.144938011577
   OB CC3062  1  0.293996576986  0.144938011577
   OB CC311  1  0.293996576986  0.144938011577
   OB CC3161  1  0.293996576986  0.144938011577
   OB CC3162  1  0.293996576986  0.144938011577
   OB CC3163  1  0.293996576986  0.144938011577
   OB CC321  1  0.293996576986  0.144938011577
   OB CC3261  1  0.293996576986  0.144938011577
   OB CC3263  1  0.293996576986  0.144938011577
   OB CC331  1  0.293996576986  0.144938011577
   OB CC2O1  1  0.302905564168  0.480705002262
   OB CC2O2  1  0.302905564168  0.383469934154
   OB CC2O3  1  0.302905564168  0.434814034732
   OB CC2O4  1  0.285087589805  0.355024172698
   OB CC2O5  1  0.276178602624  0.453727744975
   OB OC2D1  1  0.249451641079  0.502080000000
   OB OC2D2  1  0.276178602624  0.502080000000
   OB OC2D3  1  0.249451641079  0.502080000000
   OB OC2D4  1  0.249451641079  0.502080000000
   OB OC3C61  1  0.271724109033  0.458334236120
   OB OC311  1  0.281969444291  0.635251912639
   OB NC2D1  1  0.262815121851  0.648182492821
   OB  HCP1  1  0.144726496762  0.310857403193
   OB  HCA1  1  0.244106248770  0.307459952514
   OB  HCA2  1  0.244106248770  0.271154190821
   OB  HCA3  1  0.244106248770  0.224537002029
   OB CC312  1  0.293996576986  0.144938011577
   OB CC322  1  0.293996576986  0.144938011577
   OB  HCR1  1  0.195997717991  0.310857403193
   OB HCA3M  1  0.244106248770  0.224537002029
   OB CC321C  1  0.293996576986  0.144938011577
   OB CC321D  1  0.293996576986  0.144938011577
   OB CC311C  1  0.293996576986  0.144938011577
   OB CC311D  1  0.293996576986  0.144938011577
   OB OC301  1  0.271724109033  0.458334236120
   OB OC302  1  0.271724109033  0.458334236120
   OB HCP1M  1  0.144726496762  0.310857403193
   OB OC311M  1  0.281969444291  0.635251912639
   OB OC3C5M  1  0.271724109033  0.458334236120
   OB CC322C  1  0.293996576986  0.144938011577
   OB HCA2C2  1  0.240542653898  0.271154190821
   OB CC312C  1  0.293996576986  0.144938011577
   OB HCA1C2  1  0.244106248770  0.307459952514
   OB OC3C51  1  0.271724109033  0.458334236120
   OB CC3152  1  0.293996576986  0.144938011577
   OB CC3051  1  0.293996576986  0.144938011577
   OB CC3251  1  0.293996576986  0.144938011577
   OB CC3151  1  0.293996576986  0.144938011577
   OB CC3153  1  0.293996576986  0.144938011577
   OB OC2DP  1  0.276178602624  0.502080000000
   OB OC312  1  0.282414893650  0.565258245152
   OB OC30P  1  0.282414893650  0.565258245152
   OB    PC  1  0.316269044940  1.108562623941
   OB    SC  1  0.311814551349  0.993644945843
   OB CC312D  1  0.293996576986  0.144938011577
   OB OC303  1  0.271724109033  0.458334236120
   OB NC311  1  0.302905564168  0.307459952514
   OB   HN1  1  0.144726496762  0.310857403193
   OB   HN2  1  0.144726496762  0.310857403193
   OB   HN3  1  0.222724679535  0.310857403193
   OB   HN4  1  0.144726496762  0.310857403193
   OB   HN5  1  0.144726496762  0.310857403193
   OB   HN6  1  0.242324451334  0.214977812437
   OB   HN7  1  0.242324451334  0.214977812437
   OB   HN8  1  0.244106248770  0.242527681224
   OB   HN9  1  0.244106248770  0.224537002029
   OB   NN1  1  0.289542083396  0.648182492821
   OB   NN2  1  0.289542083396  0.648182492821
   OB  NN2B  1  0.289542083396  0.648182492821
   OB  NN2G  1  0.289542083396  0.648182492821
   OB  NN2U  1  0.289542083396  0.648182492821
   OB   NN3  1  0.289542083396  0.648182492821
   OB  NN3A  1  0.289542083396  0.648182492821
   OB  NN3G  1  0.289542083396  0.648182492821
   OB   NN4  1  0.289542083396  0.648182492821
   OB   NN6  1  0.289542083396  0.648182492821
   OB   ON1  1  0.276178602624  0.502080000000
   OB  ON1C  1  0.276178602624  0.502080000000
   OB   ON2  1  0.282414893650  0.565258245152
   OB   ON3  1  0.276178602624  0.502080000000
   OB   ON4  1  0.282414893650  0.565258245152
   OB   ON5  1  0.282414893650  0.565258245152
   OB   ON6  1  0.282414893650  0.565258245152
   OB  ON6B  1  0.282414893650  0.565258245152
   OB   CN1  1  0.293996576986  0.458334236120
   OB  CN1T  1  0.293996576986  0.458334236120
   OB   CN2  1  0.293996576986  0.458334236120
   OB   CN3  1  0.293996576986  0.434814034732
   OB  CN3T  1  0.293996576986  0.434814034732
   OB   CN4  1  0.293996576986  0.396929091904
   OB   CN5  1  0.293996576986  0.396929091904
   OB  CN5G  1  0.293996576986  0.396929091904
   OB   CN7  1  0.293996576986  0.144938011577
   OB  CN7B  1  0.293996576986  0.144938011577
   OB   CN8  1  0.293996576986  0.144938011577
   OB  CN8B  1  0.293996576986  0.144938011577
   OB   CN9  1  0.293996576986  0.144938011577
   OB     P  1  0.316269044940  1.108562623941
   OB    P2  1  0.316269044940  1.108562623941
   OB    P3  1  0.316269044940  1.108562623941
   OB    P4  1  0.316269044940  1.108562623941
   OB   HOL  1  0.144726496762  0.310857403193
   OB  HAL1  1  0.242324451334  0.214977812437
   OB  HAL2  1  0.244106248770  0.242527681224
   OB  HAL3  1  0.244106248770  0.224537002029
   OB   HBL  1  0.242324451334  0.214977812437
   OB   HCL  1  0.144726496762  0.310857403193
   OB    HL  1  0.187088730809  0.310857403193
   OB  HEL1  1  0.236088160307  0.255189702614
   OB  HEL2  1  0.236979059025  0.233705521373
   OB    CL  1  0.302905564168  0.383469934154
   OB   CCL  1  0.302905564168  0.383469934154
   OB  CTL1  1  0.293996576986  0.144938011577
   OB  CTL2  1  0.293996576986  0.144938011577
   OB  CTL3  1  0.293996576986  0.144938011577
   OB  CTL5  1  0.293996576986  0.144938011577
   OB  CEL1  1  0.310923652631  0.377952093472
   OB  CEL2  1  0.310032753913  0.366667388896
   OB  CRL1  1  0.293996576986  0.144938011577
   OB  CRL2  1  0.293996576986  0.144938011577
   OB   OBL  1  0.249451641079  0.502080000000
   OB   OCL  1  0.276178602624  0.502080000000
   OB   O2L  1  0.276178602624  0.502080000000
   OB   OHL  1  0.282414893650  0.565258245152
   OB   OSL  1  0.271724109033  0.458334236120
   OB  OSLP  1  0.271724109033  0.458334236120
   OB  NH3L  1  0.289542083396  0.648182492821
   OB   NTL  1  0.289542083396  0.648182492821
   OB    SL  1  0.311814551349  0.993644945843
   OB    PL  1  0.316269044940  1.108562623941
   OB HCA1A  1  0.244106248770  0.307459952514
   OB HCA2A  1  0.244106248770  0.271154190821
   OB HCA3A  1  0.244106248770  0.224537002029
   OB CC30A  1  0.293996576986  0.144938011577
   OB CC31A  1  0.293996576986  0.144938011577
   OB CC32A  1  0.293996576986  0.144938011577
   OB CC33A  1  0.293996576986  0.144938011577
   OB CC326A  1  0.293996576986  0.144938011577
   OB HCA25A  1  0.240542653898  0.271154190821
   OB CC325A  1  0.293996576986  0.144938011577
   OB CC325B  1  0.293996576986  0.144938011577
   OB OC305A  1  0.271724109033  0.458334236120
   OB OC30A  1  0.271724109033  0.458334236120
   OB  HSIO  1  0.144726496762  0.310857403193
   OB  HSIA  1  0.242324451334  0.214977812437
   OB   HAL  1  0.242324451334  0.214977812437
   OB    AL  1  0.320723538531  1.168527606863
   OB    SI  1  0.320723538531  1.122685010143
   OB  SIH3  1  0.320723538531  1.122685010143
   OB  OSIH  1  0.282414893650  0.565258245152
   OB  OSIE  1  0.282414893650  0.565258245152
   OB  OSIA  1  0.282414893650  0.565258245152
   OB   OAL  1  0.282414893650  0.565258245152
   OB    HT  1  0.144726496762  0.310857403193
   OB    OT  1  0.282254531881  0.565258245152
   OB   DUM  1  0.124725820540  0.000000000000
   OB    CM  1  0.311814551349  0.480705002262
   OB   CPA  1  0.285087589805  0.434814034732
   OB   CPB  1  0.285087589805  0.434814034732
   OB   CPM  1  0.285087589805  0.434814034732
   OB   CST  1  0.263973290185  0.349056954894
   OB  CT1X  1  0.293996576986  0.144938011577
   OB  CT2X  1  0.293996576986  0.144938011577
   OB  CT3X  1  0.293996576986  0.144938011577
   OB    HB  1  0.242324451334  0.214977812437
   OB   NPH  1  0.289542083396  0.648182492821
   OB    OM  1  0.276178602624  0.502080000000
   OB   OST  1  0.275465883649  0.588740986173
   OB   POT  1  0.281858081952  0.427505715330
   OB   CAL  1  0.246511675309  0.502080000000
   OB    MG  1  0.230297318639  0.177512086349
   OB   CES  1  0.311814551349  0.631770145543
   OB    ZN  1  0.221833780817  0.724690057887
   OB    FE  1  0.182634237219  0.000000000000
   OB    HE  1  0.256578830824  0.211381046583
   OB    NE  1  0.261033324415  0.425041684920
   OB  CLAL  1  0.294727113935  0.251040000000
   OB    AG  1  0.256356106145  3.095028982611
   OB    AU  1  0.256177926401  3.333574266279
   OB    CU  1  0.241255372872  3.148859609192
   OB    NI  1  0.238404496974  3.445137205976
   OB    PB  1  0.283528517048  2.480939130571
   OB    PD  1  0.250297994862  3.594345799725
   OB    PT  1  0.251456163195  4.047898370266
   OB   CAP  1  0.302228481142  0.383469934154
   OB    FA  1  0.276178602624  0.502080000000
   OB    CN  1  0.280633096214  0.648182492821
   OB    NC  1  0.289542083396  1.122685010143
   OB   OCA  1  0.249451641079  0.502080000000
   OB   COA  1  0.302905564168  0.480705002262
   OB   CF1  1  0.293996576986  0.355024172698
   OB   CF2  1  0.307360057758  0.297034533750
   OB   CF3  1  0.329632525712  0.204973301676
   OB   HF1  1  0.242324451334  0.242527681224
   OB   HF2  1  0.240542653898  0.251040000000
   OB    F1  1  0.269942311597  0.532536259047
   OB    F2  1  0.269942311597  0.469652835188
   OB    F3  1  0.267269615442  0.451406871724
   OB    OX  1  0.276178602624  0.502080000000
   OB    HX  1  0.144726496762  0.310857403193
   OB  HPER  1  0.144726496762  0.310857403193
   OB  OPER  1  0.273882756627  0.654375459843
   OB   LIT  1  0.240319929218  0.069961684782
   OB   RUB  1  0.293996576986  0.561342505072
   OB   BAR  1  0.293105678268  0.561342505072
   OB   CAD  1  0.245620776591  0.502080000000
   OB  ON2B  1  0.282414893650  0.565258245152
   OB    SP  1  0.320723538531  0.972273739232
   OB   HNP  1  0.245727684437  0.251040000000
   OB  HNE1  1  0.236088160307  0.255189702614
   OB  HNE2  1  0.236979059025  0.233705521373
   OB  CN3D  1  0.293996576986  0.434814034732
   OB  CNE1  1  0.310923652631  0.377952093472
   OB  CNE2  1  0.310032753913  0.366667388896
   OB   CNA  1  0.302228481142  0.383469934154
   OB  CNA2  1  0.293996576986  0.383469934154
   OB   CNG  1  0.302905564168  0.480705002262
   OB  NN1C  1  0.289542083396  0.648182492821
   OB  NN2C  1  0.289542083396  0.648182492821
   OB  NN3I  1  0.289542083396  0.648182492821
   OB   NNG  1  0.289542083396  0.648182492821
   OB   FNA  1  0.276178602624  0.502080000000
   OB  ON2M  1  0.271724109033  0.458334236120
   OB   CN6  1  0.293996576986  0.144938011577
   OB  CN7E  1  0.293996576986  0.144938011577
   OB  CT2P  1  0.293996576986  0.144938011577
   OB  CTD1  1  0.293996576986  0.144938011577
   OB  CPD1  1  0.293996576986  0.144938011577
   OB  CC1A  1  0.310923652631  0.377952093472
   OB  CC1B  1  0.310923652631  0.377952093472
   OB   CC2  1  0.310032753913  0.366667388896
   OB   NS1  1  0.289542083396  0.648182492821
   OB   NS2  1  0.289542083396  0.648182492821
   OB   NHL  1  0.262815121851  0.648182492821
   OB  CTO1  1  0.293996576986  0.144938011577
   OB  CEL3  1  0.310923652631  0.377952093472
   OB  CTO2  1  0.293996576986  0.144938011577
   OB  HN3B  1  0.204906705172  0.310857403193
   OB  CN1A  1  0.302905564168  0.383469934154
   OB  CN3A  1  0.285087589805  0.614919905028
   OB  CN3B  1  0.285087589805  0.614919905028
   OB  CN3C  1  0.285087589805  0.614919905028
CG301     C  1  0.347450500075  0.138767581228
CG301    CA  1  0.346773417049  0.110698234855
CG301    CC  1  0.347450500075  0.110698234855
CG301    CD  1  0.347450500075  0.110698234855
CG301   CE1  1  0.355468588538  0.109105371453
CG301   CE2  1  0.354577689820  0.105847757841
CG301   CP1  1  0.338541512893  0.041840000000
CG301   CP2  1  0.338541512893  0.041840000000
CG301   CP3  1  0.338541512893  0.041840000000
CG301  CPH1  1  0.329632525712  0.093557084179
CG301  CPH2  1  0.329632525712  0.093557084179
CG301    CS  1  0.365268474438  0.138767581228
CG301   CPT  1  0.334977918021  0.131646486622
CG301    CY  1  0.346559601357  0.113045454929
CG301   CAI  1  0.346559601357  0.113045454929
CG301    CT  1  0.338541512893  0.041840000000
CG301   CT1  1  0.338541512893  0.041840000000
CG301   CT2  1  0.338541512893  0.041840000000
CG301  CT2A  1  0.338541512893  0.041840000000
CG301   CT3  1  0.338541512893  0.041840000000
CG301    C3  1  0.371950214824  0.059170695450
CG301     H  1  0.189271432669  0.089736802707
CG301    HA  1  0.286869387241  0.062058748940
CG301   HB1  1  0.286869387241  0.062058748940
CG301   HB2  1  0.288651184677  0.070011711020
CG301   HE1  1  0.280633096214  0.073666921749
CG301   HE2  1  0.281523994932  0.067464972838
CG301    HC  1  0.189271432669  0.089736802707
CG301    HP  1  0.290272620344  0.072469005789
CG301   HR1  1  0.249451641079  0.089736802707
CG301   HR2  1  0.231633666716  0.089736802707
CG301   HR3  1  0.300054688270  0.036952087465
CG301    HS  1  0.209361198763  0.132309697301
CG301   HA1  1  0.288651184677  0.088756043175
CG301   HA2  1  0.288651184677  0.077149148019
CG301   HA3  1  0.288651184677  0.064818249282
CG301     N  1  0.334087019303  0.004184000000
CG301   NC2  1  0.334087019303  0.187114168357
CG301   NH1  1  0.307360057758  0.187114168357
CG301   NH2  1  0.334087019303  0.187114168357
CG301   NH3  1  0.334087019303  0.187114168357
CG301    NP  1  0.334087019303  0.187114168357
CG301   NR1  1  0.334087019303  0.187114168357
CG301   NR2  1  0.334087019303  0.187114168357
CG301   NR3  1  0.334087019303  0.187114168357
CG301    NY  1  0.334087019303  0.187114168357
CG301     O  1  0.293996576986  0.144938011577
CG301    OB  1  0.293996576986  0.144938011577
CG301    OC  1  0.320723538531  0.144938011577
CG301   OH1  1  0.326959829558  0.163176000000
CG301    OS  1  0.326959829558  0.163176000000
CG301     S  1  0.347450500075  0.280671252536
CG301    SM  1  0.345223253279  0.257919081884
CG301    SS  1  0.365268474438  0.286840588481
CG301  HGA1  1  0.288651184677  0.088756043175
CG301  HGA2  1  0.288651184677  0.078275472531
CG301  HGA3  1  0.288651184677  0.064818249282
CG301  HGA4  1  0.280633096214  0.073666921749
CG301  HGA5  1  0.281523994932  0.067464972838
CG301  HGA6  1  0.286869387241  0.070011711020
CG301  HGA7  1  0.285087589805  0.072469005789
CG301 HGAAM0  1  0.283305792369  0.070011711020
CG301 HGAAM1  1  0.283305792369  0.070011711020
CG301 HGAAM2  1  0.281523994932  0.083680000000
CG301  HGP1  1  0.189271432669  0.089736802707
CG301  HGP2  1  0.189271432669  0.089736802707
CG301  HGP3  1  0.209361198763  0.132309697301
CG301  HGP4  1  0.189271432669  0.089736802707
CG301  HGP5  1  0.231633666716  0.089736802707
CG301 HGPAM1  1  0.247224394284  0.039692909190
CG301 HGPAM2  1  0.247224394284  0.041840000000
CG301 HGPAM3  1  0.246778944925  0.045833423612
CG301 HGR51  1  0.290272620344  0.072469005789
CG301 HGR52  1  0.249451641079  0.089736802707
CG301 HGR53  1  0.231633666716  0.089736802707
CG301 HGR61  1  0.290272620344  0.072469005789
CG301 HGR62  1  0.267269615442  0.089736802707
CG301 HGR63  1  0.249451641079  0.089736802707
CG301 HGR71  1  0.290272620344  0.072469005789
CG301 HGTIP3  1  0.189271432669  0.089736802707
CG301 CG1T1  1  0.333196120584  0.170981810495
CG301 CG1T2  1  0.346782326036  0.134409982486
CG301 CG1N1  1  0.335868816739  0.177512086349
CG301 CG2D1  1  0.355468588538  0.109105371453
CG301 CG2D2  1  0.354577689820  0.105847757841
CG301 CG2D1O  1  0.355468588538  0.109105371453
CG301 CG2D2O  1  0.355468588538  0.109105371453
CG301 CG2DC1  1  0.355468588538  0.109105371453
CG301 CG2DC2  1  0.355468588538  0.109105371453
CG301 CG2DC3  1  0.354577689820  0.105847757841
CG301 CG2N1  1  0.347450500075  0.138767581228
CG301 CG2N2  1  0.347450500075  0.138767581228
CG301 CG2O1  1  0.347450500075  0.138767581228
CG301 CG2O2  1  0.320723538531  0.130979917850
CG301 CG2O3  1  0.347450500075  0.110698234855
CG301 CG2O4  1  0.329632525712  0.102486650838
CG301 CG2O5  1  0.347450500075  0.125520000000
CG301 CG2O6  1  0.347450500075  0.110698234855
CG301 CG2O7  1  0.308518226092  0.100764063435
CG301 CG2R51  1  0.356359487256  0.093557084179
CG301 CG2R52  1  0.365268474438  0.059170695450
CG301 CG2R53  1  0.365268474438  0.059170695450
CG301 CG2R57  1  0.356359487256  0.093557084179
CG301 CG25C1  1  0.355468588538  0.109105371453
CG301 CG25C2  1  0.355468588538  0.109105371453
CG301 CG251O  1  0.355468588538  0.109105371453
CG301 CG252O  1  0.355468588538  0.109105371453
CG301 CG2R61  1  0.346773417049  0.110698234855
CG301 CG2R62  1  0.338541512893  0.125520000000
CG301 CG2R63  1  0.338541512893  0.132309697301
CG301 CG2R64  1  0.356359487256  0.083680000000
CG301 CG2R66  1  0.338541512893  0.110698234855
CG301 CG2R67  1  0.346773417049  0.110698234855
CG301 CG2RC0  1  0.334977918021  0.131646486622
CG301 CG2R71  1  0.346987232741  0.108300154755
CG301 CG2RC7  1  0.334977918021  0.131646486622
CG301 CG301  1  0.338541512893  0.041840000000
CG301 CG302  1  0.374177461619  0.059170695450
CG301 CG311  1  0.338541512893  0.041840000000
CG301 CG312  1  0.351904993665  0.085746484010
CG301 CG314  1  0.338541512893  0.041840000000
CG301 CG321  1  0.338541512893  0.041840000000
CG301 CG322  1  0.338541512893  0.102486650838
CG301 CG323  1  0.365268474438  0.138767581228
CG301 CG324  1  0.338541512893  0.041840000000
CG301 CG331  1  0.338541512893  0.041840000000
CG301 CG334  1  0.338541512893  0.041840000000
CG301 CG3C50  1  0.338541512893  0.041840000000
CG301 CG3C51  1  0.338541512893  0.041840000000
CG301 CG3C52  1  0.338541512893  0.041840000000
CG301 CG3C53  1  0.338541512893  0.041840000000
CG301 CG3C54  1  0.338541512893  0.041840000000
CG301 CG3C31  1  0.338541512893  0.041840000000
CG301 CG3C41  1  0.338541512893  0.041840000000
CG301 CG3RC1  1  0.338541512893  0.041840000000
CG301 CG3AM0  1  0.344777803920  0.110698234855
CG301 CG3AM1  1  0.345668702638  0.116852760686
CG301 CG3AM2  1  0.346559601357  0.118341390899
CG301 NG1T1  1  0.328741626994  0.177512086349
CG301 NG2D1  1  0.334087019303  0.187114168357
CG301 NG2S0  1  0.334087019303  0.004184000000
CG301 NG2S1  1  0.307360057758  0.187114168357
CG301 NG2S2  1  0.334087019303  0.187114168357
CG301 NG2S3  1  0.334087019303  0.187114168357
CG301 NG2O1  1  0.334087019303  0.187114168357
CG301 NG2P1  1  0.334087019303  0.187114168357
CG301 NG2R43  1  0.334087019303  0.187114168357
CG301 NG2R50  1  0.334087019303  0.187114168357
CG301 NG2R51  1  0.334087019303  0.187114168357
CG301 NG2R52  1  0.334087019303  0.187114168357
CG301 NG2R53  1  0.334087019303  0.187114168357
CG301 NG2R57  1  0.334087019303  0.187114168357
CG301 NG2R60  1  0.337650614175  0.102486650838
CG301 NG2R61  1  0.334087019303  0.187114168357
CG301 NG2R62  1  0.352795892384  0.093557084179
CG301 NG2R67  1  0.334087019303  0.187114168357
CG301 NG2RC0  1  0.334087019303  0.187114168357
CG301 NG301  1  0.347450500075  0.078275472531
CG301 NG311  1  0.347450500075  0.088756043175
CG301 NG321  1  0.346559601357  0.102486650838
CG301 NG331  1  0.345668702638  0.110698234855
CG301 NG3C51  1  0.334087019303  0.187114168357
CG301 NG3N1  1  0.351904993665  0.102486650838
CG301 NG3P0  1  0.334087019303  0.187114168357
CG301 NG3P1  1  0.334087019303  0.187114168357
CG301 NG3P2  1  0.334087019303  0.187114168357
CG301 NG3P3  1  0.334087019303  0.187114168357
CG301 OG2D1  1  0.293996576986  0.144938011577
CG301 OG2D2  1  0.320723538531  0.144938011577
CG301 OG2D3  1  0.293996576986  0.144938011577
CG301 OG2D4  1  0.320723538531  0.144938011577
CG301 OG2D5  1  0.320010819556  0.169954883425
CG301 OG2N1  1  0.320723538531  0.144938011577
CG301 OG2P1  1  0.320723538531  0.144938011577
CG301 OG2R50  1  0.320723538531  0.144938011577
CG301 OG3R60  1  0.316269044940  0.132309697301
CG301 OG301  1  0.316269044940  0.132309697301
CG301 OG302  1  0.316269044940  0.132309697301
CG301 OG303  1  0.316269044940  0.132309697301
CG301 OG304  1  0.316269044940  0.132309697301
CG301 OG311  1  0.326514380198  0.183381431383
CG301 OG312  1  0.325178032121  0.144938011577
CG301 OG3C31  1  0.316269044940  0.132309697301
CG301 OG3C51  1  0.316269044940  0.132309697301
CG301 OG3C61  1  0.316269044940  0.132309697301
CG301 OGTIP3  1  0.326799467788  0.163176000000
CG301 SG2D1  1  0.351904993665  0.314496560236
CG301 SG2R50  1  0.347450500075  0.280671252536
CG301 SG311  1  0.347450500075  0.280671252536
CG301 SG301  1  0.345223253279  0.257919081884
CG301 SG302  1  0.365268474438  0.286840588481
CG301 SG3O1  1  0.356359487256  0.286840588481
CG301 SG3O2  1  0.347450500075  0.247528778125
CG301 SG3O3  1  0.347450500075  0.247528778125
CG301  FGA1  1  0.314487247504  0.153729976257
CG301  FGA2  1  0.314487247504  0.135577095411
CG301  FGA3  1  0.311814551349  0.130309939452
CG301  FGP1  1  0.311814551349  0.130309939452
CG301  FGR1  1  0.320723538531  0.144938011577
CG301 CLGA1  1  0.339432411611  0.245040988571
CG301 CLGA3  1  0.339432411611  0.232955260941
CG301 BRGA1  1  0.344777803920  0.289876023155
CG301 BRGA2  1  0.351904993665  0.304599797767
CG301 BRGA3  1  0.347450500075  0.307459952514
CG301   SOD  1  0.294954293108  0.090610410351
CG301   CLA  1  0.371504765465  0.162045623205
CG301   PG0  1  0.360813980847  0.320014464673
CG301   PG1  1  0.360813980847  0.320014464673
CG301   PG2  1  0.360813980847  0.320014464673
CG301  ALG1  1  0.347450500075  0.337324864189
CG301   LPH  1  0.169270756447  0.000000000000
CG301 CLGR1  1  0.334977918021  0.200657590935
CG301 BRGR1  1  0.345668702638  0.236682781799
CG301  IGR1  1  0.368832069310  0.301712530731
CG301 SG2P1  1  0.355798221064  0.332305491450
CG301 OG2S1  1  0.318906105146  0.157831660601
CG301 SG2P2  1  0.352314807076  0.329421919951
CG301 SEGD1  1  0.363041227642  0.330244580395
CG301 BG201  1  0.396449929572  0.081561175077
CG301 CC301  1  0.338541512893  0.041840000000
CG301 CC3062  1  0.338541512893  0.041840000000
CG301 CC311  1  0.338541512893  0.041840000000
CG301 CC3161  1  0.338541512893  0.041840000000
CG301 CC3162  1  0.338541512893  0.041840000000
CG301 CC3163  1  0.338541512893  0.041840000000
CG301 CC321  1  0.338541512893  0.041840000000
CG301 CC3261  1  0.338541512893  0.041840000000
CG301 CC3263  1  0.338541512893  0.041840000000
CG301 CC331  1  0.338541512893  0.041840000000
CG301 CC2O1  1  0.347450500075  0.138767581228
CG301 CC2O2  1  0.347450500075  0.110698234855
CG301 CC2O3  1  0.347450500075  0.125520000000
CG301 CC2O4  1  0.329632525712  0.102486650838
CG301 CC2O5  1  0.320723538531  0.130979917850
CG301 OC2D1  1  0.293996576986  0.144938011577
CG301 OC2D2  1  0.320723538531  0.144938011577
CG301 OC2D3  1  0.293996576986  0.144938011577
CG301 OC2D4  1  0.293996576986  0.144938011577
CG301 OC3C61  1  0.316269044940  0.132309697301
CG301 OC311  1  0.326514380198  0.183381431383
CG301 NC2D1  1  0.307360057758  0.187114168357
CG301  HCP1  1  0.189271432669  0.089736802707
CG301  HCA1  1  0.288651184677  0.088756043175
CG301  HCA2  1  0.288651184677  0.078275472531
CG301  HCA3  1  0.288651184677  0.064818249282
CG301 CC312  1  0.338541512893  0.041840000000
CG301 CC322  1  0.338541512893  0.041840000000
CG301  HCR1  1  0.240542653898  0.089736802707
CG301 HCA3M  1  0.288651184677  0.064818249282
CG301 CC321C  1  0.338541512893  0.041840000000
CG301 CC321D  1  0.338541512893  0.041840000000
CG301 CC311C  1  0.338541512893  0.041840000000
CG301 CC311D  1  0.338541512893  0.041840000000
CG301 OC301  1  0.316269044940  0.132309697301
CG301 OC302  1  0.316269044940  0.132309697301
CG301 HCP1M  1  0.189271432669  0.089736802707
CG301 OC311M  1  0.326514380198  0.183381431383
CG301 OC3C5M  1  0.316269044940  0.132309697301
CG301 CC322C  1  0.338541512893  0.041840000000
CG301 HCA2C2  1  0.285087589805  0.078275472531
CG301 CC312C  1  0.338541512893  0.041840000000
CG301 HCA1C2  1  0.288651184677  0.088756043175
CG301 OC3C51  1  0.316269044940  0.132309697301
CG301 CC3152  1  0.338541512893  0.041840000000
CG301 CC3051  1  0.338541512893  0.041840000000
CG301 CC3251  1  0.338541512893  0.041840000000
CG301 CC3151  1  0.338541512893  0.041840000000
CG301 CC3153  1  0.338541512893  0.041840000000
CG301 OC2DP  1  0.320723538531  0.144938011577
CG301 OC312  1  0.326959829558  0.163176000000
CG301 OC30P  1  0.326959829558  0.163176000000
CG301    PC  1  0.360813980847  0.320014464673
CG301    SC  1  0.356359487256  0.286840588481
CG301 CC312D  1  0.338541512893  0.041840000000
CG301 OC303  1  0.316269044940  0.132309697301
CG301 NC311  1  0.347450500075  0.088756043175
CG301   HN1  1  0.189271432669  0.089736802707
CG301   HN2  1  0.189271432669  0.089736802707
CG301   HN3  1  0.267269615442  0.089736802707
CG301   HN4  1  0.189271432669  0.089736802707
CG301   HN5  1  0.189271432669  0.089736802707
CG301   HN6  1  0.286869387241  0.062058748940
CG301   HN7  1  0.286869387241  0.062058748940
CG301   HN8  1  0.288651184677  0.070011711020
CG301   HN9  1  0.288651184677  0.064818249282
CG301   NN1  1  0.334087019303  0.187114168357
CG301   NN2  1  0.334087019303  0.187114168357
CG301  NN2B  1  0.334087019303  0.187114168357
CG301  NN2G  1  0.334087019303  0.187114168357
CG301  NN2U  1  0.334087019303  0.187114168357
CG301   NN3  1  0.334087019303  0.187114168357
CG301  NN3A  1  0.334087019303  0.187114168357
CG301  NN3G  1  0.334087019303  0.187114168357
CG301   NN4  1  0.334087019303  0.187114168357
CG301   NN6  1  0.334087019303  0.187114168357
CG301   ON1  1  0.320723538531  0.144938011577
CG301  ON1C  1  0.320723538531  0.144938011577
CG301   ON2  1  0.326959829558  0.163176000000
CG301   ON3  1  0.320723538531  0.144938011577
CG301   ON4  1  0.326959829558  0.163176000000
CG301   ON5  1  0.326959829558  0.163176000000
CG301   ON6  1  0.326959829558  0.163176000000
CG301  ON6B  1  0.326959829558  0.163176000000
CG301   CN1  1  0.338541512893  0.132309697301
CG301  CN1T  1  0.338541512893  0.132309697301
CG301   CN2  1  0.338541512893  0.132309697301
CG301   CN3  1  0.338541512893  0.125520000000
CG301  CN3T  1  0.338541512893  0.125520000000
CG301   CN4  1  0.338541512893  0.114583559030
CG301   CN5  1  0.338541512893  0.114583559030
CG301  CN5G  1  0.338541512893  0.114583559030
CG301   CN7  1  0.338541512893  0.041840000000
CG301  CN7B  1  0.338541512893  0.041840000000
CG301   CN8  1  0.338541512893  0.041840000000
CG301  CN8B  1  0.338541512893  0.041840000000
CG301   CN9  1  0.338541512893  0.041840000000
CG301     P  1  0.360813980847  0.320014464673
CG301    P2  1  0.360813980847  0.320014464673
CG301    P3  1  0.360813980847  0.320014464673
CG301    P4  1  0.360813980847  0.320014464673
CG301   HOL  1  0.189271432669  0.089736802707
CG301  HAL1  1  0.286869387241  0.062058748940
CG301  HAL2  1  0.288651184677  0.070011711020
CG301  HAL3  1  0.288651184677  0.064818249282
CG301   HBL  1  0.286869387241  0.062058748940
CG301   HCL  1  0.189271432669  0.089736802707
CG301    HL  1  0.231633666716  0.089736802707
CG301  HEL1  1  0.280633096214  0.073666921749
CG301  HEL2  1  0.281523994932  0.067464972838
CG301    CL  1  0.347450500075  0.110698234855
CG301   CCL  1  0.347450500075  0.110698234855
CG301  CTL1  1  0.338541512893  0.041840000000
CG301  CTL2  1  0.338541512893  0.041840000000
CG301  CTL3  1  0.338541512893  0.041840000000
CG301  CTL5  1  0.338541512893  0.041840000000
CG301  CEL1  1  0.355468588538  0.109105371453
CG301  CEL2  1  0.354577689820  0.105847757841
CG301  CRL1  1  0.338541512893  0.041840000000
CG301  CRL2  1  0.338541512893  0.041840000000
CG301   OBL  1  0.293996576986  0.144938011577
CG301   OCL  1  0.320723538531  0.144938011577
CG301   O2L  1  0.320723538531  0.144938011577
CG301   OHL  1  0.326959829558  0.163176000000
CG301   OSL  1  0.316269044940  0.132309697301
CG301  OSLP  1  0.316269044940  0.132309697301
CG301  NH3L  1  0.334087019303  0.187114168357
CG301   NTL  1  0.334087019303  0.187114168357
CG301    SL  1  0.356359487256  0.286840588481
CG301    PL  1  0.360813980847  0.320014464673
CG301 HCA1A  1  0.288651184677  0.088756043175
CG301 HCA2A  1  0.288651184677  0.078275472531
CG301 HCA3A  1  0.288651184677  0.064818249282
CG301 CC30A  1  0.338541512893  0.041840000000
CG301 CC31A  1  0.338541512893  0.041840000000
CG301 CC32A  1  0.338541512893  0.041840000000
CG301 CC33A  1  0.338541512893  0.041840000000
CG301 CC326A  1  0.338541512893  0.041840000000
CG301 HCA25A  1  0.285087589805  0.078275472531
CG301 CC325A  1  0.338541512893  0.041840000000
CG301 CC325B  1  0.338541512893  0.041840000000
CG301 OC305A  1  0.316269044940  0.132309697301
CG301 OC30A  1  0.316269044940  0.132309697301
CG301  HSIO  1  0.189271432669  0.089736802707
CG301  HSIA  1  0.286869387241  0.062058748940
CG301   HAL  1  0.286869387241  0.062058748940
CG301    AL  1  0.365268474438  0.337324864189
CG301    SI  1  0.365268474438  0.324091246411
CG301  SIH3  1  0.365268474438  0.324091246411
CG301  OSIH  1  0.326959829558  0.163176000000
CG301  OSIE  1  0.326959829558  0.163176000000
CG301  OSIA  1  0.326959829558  0.163176000000
CG301   OAL  1  0.326959829558  0.163176000000
CG301    HT  1  0.189271432669  0.089736802707
CG301    OT  1  0.326799467788  0.163176000000
CG301   DUM  1  0.169270756447  0.000000000000
CG301    CM  1  0.356359487256  0.138767581228
CG301   CPA  1  0.329632525712  0.125520000000
CG301   CPB  1  0.329632525712  0.125520000000
CG301   CPM  1  0.329632525712  0.125520000000
CG301   CST  1  0.308518226092  0.100764063435
CG301  CT1X  1  0.338541512893  0.041840000000
CG301  CT2X  1  0.338541512893  0.041840000000
CG301  CT3X  1  0.338541512893  0.041840000000
CG301    HB  1  0.286869387241  0.062058748940
CG301   NPH  1  0.334087019303  0.187114168357
CG301    OM  1  0.320723538531  0.144938011577
CG301   OST  1  0.320010819556  0.169954883425
CG301   POT  1  0.326403017859  0.123410269913
CG301   CAL  1  0.291056611216  0.144938011577
CG301    MG  1  0.274842254546  0.051243325419
CG301   CES  1  0.356359487256  0.182376331798
CG301    ZN  1  0.266378716724  0.209200000000
CG301    FE  1  0.227179173126  0.000000000000
CG301    HE  1  0.301123766731  0.061020452073
CG301    NE  1  0.305578260322  0.122698965603
CG301  CLAL  1  0.339272049842  0.072469005789
CG301    AG  1  0.300901042052  0.893457908130
CG301    AU  1  0.300722862308  0.962320000000
CG301    CU  1  0.285800308779  0.908997471504
CG301    NI  1  0.282949432881  0.994525446633
CG301    PB  1  0.328073452955  0.716185437439
CG301    PD  1  0.294842930769  1.037598257516
CG301    PT  1  0.296001099102  1.168527606863
CG301   CAP  1  0.346773417049  0.110698234855
CG301    FA  1  0.320723538531  0.144938011577
CG301    CN  1  0.325178032121  0.187114168357
CG301    NC  1  0.334087019303  0.324091246411
CG301   OCA  1  0.293996576986  0.144938011577
CG301   COA  1  0.347450500075  0.138767581228
CG301   CF1  1  0.338541512893  0.102486650838
CG301   CF2  1  0.351904993665  0.085746484010
CG301   CF3  1  0.374177461619  0.059170695450
CG301   HF1  1  0.286869387241  0.070011711020
CG301   HF2  1  0.285087589805  0.072469005789
CG301    F1  1  0.314487247504  0.153729976257
CG301    F2  1  0.314487247504  0.135577095411
CG301    F3  1  0.311814551349  0.130309939452
CG301    OX  1  0.320723538531  0.144938011577
CG301    HX  1  0.189271432669  0.089736802707
CG301  HPER  1  0.189271432669  0.089736802707
CG301  OPER  1  0.318427692534  0.188901923946
CG301   LIT  1  0.284864865125  0.020196198771
CG301   RUB  1  0.338541512893  0.162045623205
CG301   BAR  1  0.337650614175  0.162045623205
CG301   CAD  1  0.290165712498  0.144938011577
CG301  ON2B  1  0.326959829558  0.163176000000
CG301    SP  1  0.365268474438  0.280671252536
CG301   HNP  1  0.290272620344  0.072469005789
CG301  HNE1  1  0.280633096214  0.073666921749
CG301  HNE2  1  0.281523994932  0.067464972838
CG301  CN3D  1  0.338541512893  0.125520000000
CG301  CNE1  1  0.355468588538  0.109105371453
CG301  CNE2  1  0.354577689820  0.105847757841
CG301   CNA  1  0.346773417049  0.110698234855
CG301  CNA2  1  0.338541512893  0.110698234855
CG301   CNG  1  0.347450500075  0.138767581228
CG301  NN1C  1  0.334087019303  0.187114168357
CG301  NN2C  1  0.334087019303  0.187114168357
CG301  NN3I  1  0.334087019303  0.187114168357
CG301   NNG  1  0.334087019303  0.187114168357
CG301   FNA  1  0.320723538531  0.144938011577
CG301  ON2M  1  0.316269044940  0.132309697301
CG301   CN6  1  0.338541512893  0.041840000000
CG301  CN7E  1  0.338541512893  0.041840000000
CG301  CT2P  1  0.338541512893  0.041840000000
CG301  CTD1  1  0.338541512893  0.041840000000
CG301  CPD1  1  0.338541512893  0.041840000000
CG301  CC1A  1  0.355468588538  0.109105371453
CG301  CC1B  1  0.355468588538  0.109105371453
CG301   CC2  1  0.354577689820  0.105847757841
CG301   NS1  1  0.334087019303  0.187114168357
CG301   NS2  1  0.334087019303  0.187114168357
CG301   NHL  1  0.307360057758  0.187114168357
CG301  CTO1  1  0.338541512893  0.041840000000
CG301  CEL3  1  0.355468588538  0.109105371453
CG301  CTO2  1  0.338541512893  0.041840000000
CG301  HN3B  1  0.249451641079  0.089736802707
CG301  CN1A  1  0.347450500075  0.110698234855
CG301  CN3A  1  0.329632525712  0.177512086349
CG301  CN3B  1  0.329632525712  0.177512086349
CG301  CN3C  1  0.329632525712  0.177512086349
CG311     C  1  0.347450500075  0.138767581228
CG311    CA  1  0.346773417049  0.110698234855
CG311    CC  1  0.347450500075  0.110698234855
CG311    CD  1  0.347450500075  0.110698234855
CG311   CE1  1  0.355468588538  0.109105371453
CG311   CE2  1  0.354577689820  0.105847757841
CG311   CP1  1  0.338541512893  0.041840000000
CG311   CP2  1  0.338541512893  0.041840000000
CG311   CP3  1  0.338541512893  0.041840000000
CG311  CPH1  1  0.329632525712  0.093557084179
CG311  CPH2  1  0.329632525712  0.093557084179
CG311    CS  1  0.365268474438  0.138767581228
CG311   CPT  1  0.334977918021  0.131646486622
CG311    CY  1  0.346559601357  0.113045454929
CG311   CAI  1  0.346559601357  0.113045454929
CG311    CT  1  0.338541512893  0.041840000000
CG311   CT1  1  0.338541512893  0.041840000000
CG311   CT2  1  0.338541512893  0.041840000000
CG311  CT2A  1  0.338541512893  0.041840000000
CG311   CT3  1  0.338541512893  0.041840000000
CG311    C3  1  0.371950214824  0.059170695450
CG311     H  1  0.189271432669  0.089736802707
CG311    HA  1  0.286869387241  0.062058748940
CG311   HB1  1  0.286869387241  0.062058748940
CG311   HB2  1  0.288651184677  0.070011711020
CG311   HE1  1  0.280633096214  0.073666921749
CG311   HE2  1  0.281523994932  0.067464972838
CG311    HC  1  0.189271432669  0.089736802707
CG311    HP  1  0.290272620344  0.072469005789
CG311   HR1  1  0.249451641079  0.089736802707
CG311   HR2  1  0.231633666716  0.089736802707
CG311   HR3  1  0.300054688270  0.036952087465
CG311    HS  1  0.209361198763  0.132309697301
CG311   HA1  1  0.288651184677  0.088756043175
CG311   HA2  1  0.288651184677  0.077149148019
CG311   HA3  1  0.288651184677  0.064818249282
CG311     N  1  0.334087019303  0.004184000000
CG311   NC2  1  0.334087019303  0.187114168357
CG311   NH1  1  0.307360057758  0.187114168357
CG311   NH2  1  0.334087019303  0.187114168357
CG311   NH3  1  0.334087019303  0.187114168357
CG311    NP  1  0.334087019303  0.187114168357
CG311   NR1  1  0.334087019303  0.187114168357
CG311   NR2  1  0.334087019303  0.187114168357
CG311   NR3  1  0.334087019303  0.187114168357
CG311    NY  1  0.334087019303  0.187114168357
CG311     O  1  0.293996576986  0.144938011577
CG311    OB  1  0.293996576986  0.144938011577
CG311    OC  1  0.320723538531  0.144938011577
CG311   OH1  1  0.326959829558  0.163176000000
CG311    OS  1  0.326959829558  0.163176000000
CG311     S  1  0.347450500075  0.280671252536
CG311    SM  1  0.345223253279  0.257919081884
CG311    SS  1  0.365268474438  0.286840588481
CG311  HGA1  1  0.288651184677  0.088756043175
CG311  HGA2  1  0.288651184677  0.078275472531
CG311  HGA3  1  0.288651184677  0.064818249282
CG311  HGA4  1  0.280633096214  0.073666921749
CG311  HGA5  1  0.281523994932  0.067464972838
CG311  HGA6  1  0.286869387241  0.070011711020
CG311  HGA7  1  0.285087589805  0.072469005789
CG311 HGAAM0  1  0.283305792369  0.070011711020
CG311 HGAAM1  1  0.283305792369  0.070011711020
CG311 HGAAM2  1  0.281523994932  0.083680000000
CG311  HGP1  1  0.189271432669  0.089736802707
CG311  HGP2  1  0.189271432669  0.089736802707
CG311  HGP3  1  0.209361198763  0.132309697301
CG311  HGP4  1  0.189271432669  0.089736802707
CG311  HGP5  1  0.231633666716  0.089736802707
CG311 HGPAM1  1  0.247224394284  0.039692909190
CG311 HGPAM2  1  0.247224394284  0.041840000000
CG311 HGPAM3  1  0.246778944925  0.045833423612
CG311 HGR51  1  0.290272620344  0.072469005789
CG311 HGR52  1  0.249451641079  0.089736802707
CG311 HGR53  1  0.231633666716  0.089736802707
CG311 HGR61  1  0.290272620344  0.072469005789
CG311 HGR62  1  0.267269615442  0.089736802707
CG311 HGR63  1  0.249451641079  0.089736802707
CG311 HGR71  1  0.290272620344  0.072469005789
CG311 HGTIP3  1  0.189271432669  0.089736802707
CG311 CG1T1  1  0.333196120584  0.170981810495
CG311 CG1T2  1  0.346782326036  0.134409982486
CG311 CG1N1  1  0.335868816739  0.177512086349
CG311 CG2D1  1  0.355468588538  0.109105371453
CG311 CG2D2  1  0.354577689820  0.105847757841
CG311 CG2D1O  1  0.355468588538  0.109105371453
CG311 CG2D2O  1  0.355468588538  0.109105371453
CG311 CG2DC1  1  0.355468588538  0.109105371453
CG311 CG2DC2  1  0.355468588538  0.109105371453
CG311 CG2DC3  1  0.354577689820  0.105847757841
CG311 CG2N1  1  0.347450500075  0.138767581228
CG311 CG2N2  1  0.347450500075  0.138767581228
CG311 CG2O1  1  0.347450500075  0.138767581228
CG311 CG2O2  1  0.320723538531  0.130979917850
CG311 CG2O3  1  0.347450500075  0.110698234855
CG311 CG2O4  1  0.329632525712  0.102486650838
CG311 CG2O5  1  0.347450500075  0.125520000000
CG311 CG2O6  1  0.347450500075  0.110698234855
CG311 CG2O7  1  0.308518226092  0.100764063435
CG311 CG2R51  1  0.356359487256  0.093557084179
CG311 CG2R52  1  0.365268474438  0.059170695450
CG311 CG2R53  1  0.365268474438  0.059170695450
CG311 CG2R57  1  0.356359487256  0.093557084179
CG311 CG25C1  1  0.355468588538  0.109105371453
CG311 CG25C2  1  0.355468588538  0.109105371453
CG311 CG251O  1  0.355468588538  0.109105371453
CG311 CG252O  1  0.355468588538  0.109105371453
CG311 CG2R61  1  0.346773417049  0.110698234855
CG311 CG2R62  1  0.338541512893  0.125520000000
CG311 CG2R63  1  0.338541512893  0.132309697301
CG311 CG2R64  1  0.356359487256  0.083680000000
CG311 CG2R66  1  0.338541512893  0.110698234855
CG311 CG2R67  1  0.346773417049  0.110698234855
CG311 CG2RC0  1  0.334977918021  0.131646486622
CG311 CG2R71  1  0.346987232741  0.108300154755
CG311 CG2RC7  1  0.334977918021  0.131646486622
CG311 CG301  1  0.338541512893  0.041840000000
CG311 CG302  1  0.374177461619  0.059170695450
CG311 CG311  1  0.338541512893  0.041840000000
CG311 CG312  1  0.351904993665  0.085746484010
CG311 CG314  1  0.338541512893  0.041840000000
CG311 CG321  1  0.338541512893  0.041840000000
CG311 CG322  1  0.338541512893  0.102486650838
CG311 CG323  1  0.365268474438  0.138767581228
CG311 CG324  1  0.338541512893  0.041840000000
CG311 CG331  1  0.338541512893  0.041840000000
CG311 CG334  1  0.338541512893  0.041840000000
CG311 CG3C50  1  0.338541512893  0.041840000000
CG311 CG3C51  1  0.338541512893  0.041840000000
CG311 CG3C52  1  0.338541512893  0.041840000000
CG311 CG3C53  1  0.338541512893  0.041840000000
CG311 CG3C54  1  0.338541512893  0.041840000000
CG311 CG3C31  1  0.338541512893  0.041840000000
CG311 CG3C41  1  0.338541512893  0.041840000000
CG311 CG3RC1  1  0.338541512893  0.041840000000
CG311 CG3AM0  1  0.344777803920  0.110698234855
CG311 CG3AM1  1  0.345668702638  0.116852760686
CG311 CG3AM2  1  0.346559601357  0.118341390899
CG311 NG1T1  1  0.328741626994  0.177512086349
CG311 NG2D1  1  0.334087019303  0.187114168357
CG311 NG2S0  1  0.334087019303  0.004184000000
CG311 NG2S1  1  0.307360057758  0.187114168357
CG311 NG2S2  1  0.334087019303  0.187114168357
CG311 NG2S3  1  0.334087019303  0.187114168357
CG311 NG2O1  1  0.334087019303  0.187114168357
CG311 NG2P1  1  0.334087019303  0.187114168357
CG311 NG2R43  1  0.334087019303  0.187114168357
CG311 NG2R50  1  0.334087019303  0.187114168357
CG311 NG2R51  1  0.334087019303  0.187114168357
CG311 NG2R52  1  0.334087019303  0.187114168357
CG311 NG2R53  1  0.334087019303  0.187114168357
CG311 NG2R57  1  0.334087019303  0.187114168357
CG311 NG2R60  1  0.337650614175  0.102486650838
CG311 NG2R61  1  0.334087019303  0.187114168357
CG311 NG2R62  1  0.352795892384  0.093557084179
CG311 NG2R67  1  0.334087019303  0.187114168357
CG311 NG2RC0  1  0.334087019303  0.187114168357
CG311 NG301  1  0.347450500075  0.078275472531
CG311 NG311  1  0.347450500075  0.088756043175
CG311 NG321  1  0.346559601357  0.102486650838
CG311 NG331  1  0.345668702638  0.110698234855
CG311 NG3C51  1  0.334087019303  0.187114168357
CG311 NG3N1  1  0.351904993665  0.102486650838
CG311 NG3P0  1  0.334087019303  0.187114168357
CG311 NG3P1  1  0.334087019303  0.187114168357
CG311 NG3P2  1  0.334087019303  0.187114168357
CG311 NG3P3  1  0.334087019303  0.187114168357
CG311 OG2D1  1  0.293996576986  0.144938011577
CG311 OG2D2  1  0.320723538531  0.144938011577
CG311 OG2D3  1  0.293996576986  0.144938011577
CG311 OG2D4  1  0.320723538531  0.144938011577
CG311 OG2D5  1  0.320010819556  0.169954883425
CG311 OG2N1  1  0.320723538531  0.144938011577
CG311 OG2P1  1  0.320723538531  0.144938011577
CG311 OG2R50  1  0.320723538531  0.144938011577
CG311 OG3R60  1  0.316269044940  0.132309697301
CG311 OG301  1  0.316269044940  0.132309697301
CG311 OG302  1  0.316269044940  0.132309697301
CG311 OG303  1  0.316269044940  0.132309697301
CG311 OG304  1  0.316269044940  0.132309697301
CG311 OG311  1  0.326514380198  0.183381431383
CG311 OG312  1  0.325178032121  0.144938011577
CG311 OG3C31  1  0.316269044940  0.132309697301
CG311 OG3C51  1  0.316269044940  0.132309697301
CG311 OG3C61  1  0.316269044940  0.132309697301
CG311 OGTIP3  1  0.326799467788  0.163176000000
CG311 SG2D1  1  0.351904993665  0.314496560236
CG311 SG2R50  1  0.347450500075  0.280671252536
CG311 SG311  1  0.347450500075  0.280671252536
CG311 SG301  1  0.345223253279  0.257919081884
CG311 SG302  1  0.365268474438  0.286840588481
CG311 SG3O1  1  0.356359487256  0.286840588481
CG311 SG3O2  1  0.347450500075  0.247528778125
CG311 SG3O3  1  0.347450500075  0.247528778125
CG311  FGA1  1  0.314487247504  0.153729976257
CG311  FGA2  1  0.314487247504  0.135577095411
CG311  FGA3  1  0.311814551349  0.130309939452
CG311  FGP1  1  0.311814551349  0.130309939452
CG311  FGR1  1  0.320723538531  0.144938011577
CG311 CLGA1  1  0.339432411611  0.245040988571
CG311 CLGA3  1  0.339432411611  0.232955260941
CG311 BRGA1  1  0.344777803920  0.289876023155
CG311 BRGA2  1  0.351904993665  0.304599797767
CG311 BRGA3  1  0.347450500075  0.307459952514
CG311   SOD  1  0.294954293108  0.090610410351
CG311   CLA  1  0.371504765465  0.162045623205
CG311   PG0  1  0.360813980847  0.320014464673
CG311   PG1  1  0.360813980847  0.320014464673
CG311   PG2  1  0.360813980847  0.320014464673
CG311  ALG1  1  0.347450500075  0.337324864189
CG311   LPH  1  0.169270756447  0.000000000000
CG311 CLGR1  1  0.334977918021  0.200657590935
CG311 BRGR1  1  0.345668702638  0.236682781799
CG311  IGR1  1  0.368832069310  0.301712530731
CG311 SG2P1  1  0.355798221064  0.332305491450
CG311 OG2S1  1  0.318906105146  0.157831660601
CG311 SG2P2  1  0.352314807076  0.329421919951
CG311 SEGD1  1  0.363041227642  0.330244580395
CG311 BG201  1  0.396449929572  0.081561175077
CG311 CC301  1  0.338541512893  0.041840000000
CG311 CC3062  1  0.338541512893  0.041840000000
CG311 CC311  1  0.338541512893  0.041840000000
CG311 CC3161  1  0.338541512893  0.041840000000
CG311 CC3162  1  0.338541512893  0.041840000000
CG311 CC3163  1  0.338541512893  0.041840000000
CG311 CC321  1  0.338541512893  0.041840000000
CG311 CC3261  1  0.338541512893  0.041840000000
CG311 CC3263  1  0.338541512893  0.041840000000
CG311 CC331  1  0.338541512893  0.041840000000
CG311 CC2O1  1  0.347450500075  0.138767581228
CG311 CC2O2  1  0.347450500075  0.110698234855
CG311 CC2O3  1  0.347450500075  0.125520000000
CG311 CC2O4  1  0.329632525712  0.102486650838
CG311 CC2O5  1  0.320723538531  0.130979917850
CG311 OC2D1  1  0.293996576986  0.144938011577
CG311 OC2D2  1  0.320723538531  0.144938011577
CG311 OC2D3  1  0.293996576986  0.144938011577
CG311 OC2D4  1  0.293996576986  0.144938011577
CG311 OC3C61  1  0.316269044940  0.132309697301
CG311 OC311  1  0.326514380198  0.183381431383
CG311 NC2D1  1  0.307360057758  0.187114168357
CG311  HCP1  1  0.189271432669  0.089736802707
CG311  HCA1  1  0.288651184677  0.088756043175
CG311  HCA2  1  0.288651184677  0.078275472531
CG311  HCA3  1  0.288651184677  0.064818249282
CG311 CC312  1  0.338541512893  0.041840000000
CG311 CC322  1  0.338541512893  0.041840000000
CG311  HCR1  1  0.240542653898  0.089736802707
CG311 HCA3M  1  0.288651184677  0.064818249282
CG311 CC321C  1  0.338541512893  0.041840000000
CG311 CC321D  1  0.338541512893  0.041840000000
CG311 CC311C  1  0.338541512893  0.041840000000
CG311 CC311D  1  0.338541512893  0.041840000000
CG311 OC301  1  0.316269044940  0.132309697301
CG311 OC302  1  0.316269044940  0.132309697301
CG311 HCP1M  1  0.189271432669  0.089736802707
CG311 OC311M  1  0.326514380198  0.183381431383
CG311 OC3C5M  1  0.316269044940  0.132309697301
CG311 CC322C  1  0.338541512893  0.041840000000
CG311 HCA2C2  1  0.285087589805  0.078275472531
CG311 CC312C  1  0.338541512893  0.041840000000
CG311 HCA1C2  1  0.288651184677  0.088756043175
CG311 OC3C51  1  0.316269044940  0.132309697301
CG311 CC3152  1  0.338541512893  0.041840000000
CG311 CC3051  1  0.338541512893  0.041840000000
CG311 CC3251  1  0.338541512893  0.041840000000
CG311 CC3151  1  0.338541512893  0.041840000000
CG311 CC3153  1  0.338541512893  0.041840000000
CG311 OC2DP  1  0.320723538531  0.144938011577
CG311 OC312  1  0.326959829558  0.163176000000
CG311 OC30P  1  0.326959829558  0.163176000000
CG311    PC  1  0.360813980847  0.320014464673
CG311    SC  1  0.356359487256  0.286840588481
CG311 CC312D  1  0.338541512893  0.041840000000
CG311 OC303  1  0.316269044940  0.132309697301
CG311 NC311  1  0.347450500075  0.088756043175
CG311   HN1  1  0.189271432669  0.089736802707
CG311   HN2  1  0.189271432669  0.089736802707
CG311   HN3  1  0.267269615442  0.089736802707
CG311   HN4  1  0.189271432669  0.089736802707
CG311   HN5  1  0.189271432669  0.089736802707
CG311   HN6  1  0.286869387241  0.062058748940
CG311   HN7  1  0.286869387241  0.062058748940
CG311   HN8  1  0.288651184677  0.070011711020
CG311   HN9  1  0.288651184677  0.064818249282
CG311   NN1  1  0.334087019303  0.187114168357
CG311   NN2  1  0.334087019303  0.187114168357
CG311  NN2B  1  0.334087019303  0.187114168357
CG311  NN2G  1  0.334087019303  0.187114168357
CG311  NN2U  1  0.334087019303  0.187114168357
CG311   NN3  1  0.334087019303  0.187114168357
CG311  NN3A  1  0.334087019303  0.187114168357
CG311  NN3G  1  0.334087019303  0.187114168357
CG311   NN4  1  0.334087019303  0.187114168357
CG311   NN6  1  0.334087019303  0.187114168357
CG311   ON1  1  0.320723538531  0.144938011577
CG311  ON1C  1  0.320723538531  0.144938011577
CG311   ON2  1  0.326959829558  0.163176000000
CG311   ON3  1  0.320723538531  0.144938011577
CG311   ON4  1  0.326959829558  0.163176000000
CG311   ON5  1  0.326959829558  0.163176000000
CG311   ON6  1  0.326959829558  0.163176000000
CG311  ON6B  1  0.326959829558  0.163176000000
CG311   CN1  1  0.338541512893  0.132309697301
CG311  CN1T  1  0.338541512893  0.132309697301
CG311   CN2  1  0.338541512893  0.132309697301
CG311   CN3  1  0.338541512893  0.125520000000
CG311  CN3T  1  0.338541512893  0.125520000000
CG311   CN4  1  0.338541512893  0.114583559030
CG311   CN5  1  0.338541512893  0.114583559030
CG311  CN5G  1  0.338541512893  0.114583559030
CG311   CN7  1  0.338541512893  0.041840000000
CG311  CN7B  1  0.338541512893  0.041840000000
CG311   CN8  1  0.338541512893  0.041840000000
CG311  CN8B  1  0.338541512893  0.041840000000
CG311   CN9  1  0.338541512893  0.041840000000
CG311     P  1  0.360813980847  0.320014464673
CG311    P2  1  0.360813980847  0.320014464673
CG311    P3  1  0.360813980847  0.320014464673
CG311    P4  1  0.360813980847  0.320014464673
CG311   HOL  1  0.189271432669  0.089736802707
CG311  HAL1  1  0.286869387241  0.062058748940
CG311  HAL2  1  0.288651184677  0.070011711020
CG311  HAL3  1  0.288651184677  0.064818249282
CG311   HBL  1  0.286869387241  0.062058748940
CG311   HCL  1  0.189271432669  0.089736802707
CG311    HL  1  0.231633666716  0.089736802707
CG311  HEL1  1  0.280633096214  0.073666921749
CG311  HEL2  1  0.281523994932  0.067464972838
CG311    CL  1  0.347450500075  0.110698234855
CG311   CCL  1  0.347450500075  0.110698234855
CG311  CTL1  1  0.338541512893  0.041840000000
CG311  CTL2  1  0.338541512893  0.041840000000
CG311  CTL3  1  0.338541512893  0.041840000000
CG311  CTL5  1  0.338541512893  0.041840000000
CG311  CEL1  1  0.355468588538  0.109105371453
CG311  CEL2  1  0.354577689820  0.105847757841
CG311  CRL1  1  0.338541512893  0.041840000000
CG311  CRL2  1  0.338541512893  0.041840000000
CG311   OBL  1  0.293996576986  0.144938011577
CG311   OCL  1  0.320723538531  0.144938011577
CG311   O2L  1  0.320723538531  0.144938011577
CG311   OHL  1  0.326959829558  0.163176000000
CG311   OSL  1  0.316269044940  0.132309697301
CG311  OSLP  1  0.316269044940  0.132309697301
CG311  NH3L  1  0.334087019303  0.187114168357
CG311   NTL  1  0.334087019303  0.187114168357
CG311    SL  1  0.356359487256  0.286840588481
CG311    PL  1  0.360813980847  0.320014464673
CG311 HCA1A  1  0.288651184677  0.088756043175
CG311 HCA2A  1  0.288651184677  0.078275472531
CG311 HCA3A  1  0.288651184677  0.064818249282
CG311 CC30A  1  0.338541512893  0.041840000000
CG311 CC31A  1  0.338541512893  0.041840000000
CG311 CC32A  1  0.338541512893  0.041840000000
CG311 CC33A  1  0.338541512893  0.041840000000
CG311 CC326A  1  0.338541512893  0.041840000000
CG311 HCA25A  1  0.285087589805  0.078275472531
CG311 CC325A  1  0.338541512893  0.041840000000
CG311 CC325B  1  0.338541512893  0.041840000000
CG311 OC305A  1  0.316269044940  0.132309697301
CG311 OC30A  1  0.316269044940  0.132309697301
CG311  HSIO  1  0.189271432669  0.089736802707
CG311  HSIA  1  0.286869387241  0.062058748940
CG311   HAL  1  0.286869387241  0.062058748940
CG311    AL  1  0.365268474438  0.337324864189
CG311    SI  1  0.365268474438  0.324091246411
CG311  SIH3  1  0.365268474438  0.324091246411
CG311  OSIH  1  0.326959829558  0.163176000000
CG311  OSIE  1  0.326959829558  0.163176000000
CG311  OSIA  1  0.326959829558  0.163176000000
CG311   OAL  1  0.326959829558  0.163176000000
CG311    HT  1  0.189271432669  0.089736802707
CG311    OT  1  0.326799467788  0.163176000000
CG311   DUM  1  0.169270756447  0.000000000000
CG311    CM  1  0.356359487256  0.138767581228
CG311   CPA  1  0.329632525712  0.125520000000
CG311   CPB  1  0.329632525712  0.125520000000
CG311   CPM  1  0.329632525712  0.125520000000
CG311   CST  1  0.308518226092  0.100764063435
CG311  CT1X  1  0.338541512893  0.041840000000
CG311  CT2X  1  0.338541512893  0.041840000000
CG311  CT3X  1  0.338541512893  0.041840000000
CG311    HB  1  0.286869387241  0.062058748940
CG311   NPH  1  0.334087019303  0.187114168357
CG311    OM  1  0.320723538531  0.144938011577
CG311   OST  1  0.320010819556  0.169954883425
CG311   POT  1  0.326403017859  0.123410269913
CG311   CAL  1  0.291056611216  0.144938011577
CG311    MG  1  0.274842254546  0.051243325419
CG311   CES  1  0.356359487256  0.182376331798
CG311    ZN  1  0.266378716724  0.209200000000
CG311    FE  1  0.227179173126  0.000000000000
CG311    HE  1  0.301123766731  0.061020452073
CG311    NE  1  0.305578260322  0.122698965603
CG311  CLAL  1  0.339272049842  0.072469005789
CG311    AG  1  0.300901042052  0.893457908130
CG311    AU  1  0.300722862308  0.962320000000
CG311    CU  1  0.285800308779  0.908997471504
CG311    NI  1  0.282949432881  0.994525446633
CG311    PB  1  0.328073452955  0.716185437439
CG311    PD  1  0.294842930769  1.037598257516
CG311    PT  1  0.296001099102  1.168527606863
CG311   CAP  1  0.346773417049  0.110698234855
CG311    FA  1  0.320723538531  0.144938011577
CG311    CN  1  0.325178032121  0.187114168357
CG311    NC  1  0.334087019303  0.324091246411
CG311   OCA  1  0.293996576986  0.144938011577
CG311   COA  1  0.347450500075  0.138767581228
CG311   CF1  1  0.338541512893  0.102486650838
CG311   CF2  1  0.351904993665  0.085746484010
CG311   CF3  1  0.374177461619  0.059170695450
CG311   HF1  1  0.286869387241  0.070011711020
CG311   HF2  1  0.285087589805  0.072469005789
CG311    F1  1  0.314487247504  0.153729976257
CG311    F2  1  0.314487247504  0.135577095411
CG311    F3  1  0.311814551349  0.130309939452
CG311    OX  1  0.320723538531  0.144938011577
CG311    HX  1  0.189271432669  0.089736802707
CG311  HPER  1  0.189271432669  0.089736802707
CG311  OPER  1  0.318427692534  0.188901923946
CG311   LIT  1  0.284864865125  0.020196198771
CG311   RUB  1  0.338541512893  0.162045623205
CG311   BAR  1  0.337650614175  0.162045623205
CG311   CAD  1  0.290165712498  0.144938011577
CG311  ON2B  1  0.326959829558  0.163176000000
CG311    SP  1  0.365268474438  0.280671252536
CG311   HNP  1  0.290272620344  0.072469005789
CG311  HNE1  1  0.280633096214  0.073666921749
CG311  HNE2  1  0.281523994932  0.067464972838
CG311  CN3D  1  0.338541512893  0.125520000000
CG311  CNE1  1  0.355468588538  0.109105371453
CG311  CNE2  1  0.354577689820  0.105847757841
CG311   CNA  1  0.346773417049  0.110698234855
CG311  CNA2  1  0.338541512893  0.110698234855
CG311   CNG  1  0.347450500075  0.138767581228
CG311  NN1C  1  0.334087019303  0.187114168357
CG311  NN2C  1  0.334087019303  0.187114168357
CG311  NN3I  1  0.334087019303  0.187114168357
CG311   NNG  1  0.334087019303  0.187114168357
CG311   FNA  1  0.320723538531  0.144938011577
CG311  ON2M  1  0.316269044940  0.132309697301
CG311   CN6  1  0.338541512893  0.041840000000
CG311  CN7E  1  0.338541512893  0.041840000000
CG311  CT2P  1  0.338541512893  0.041840000000
CG311  CTD1  1  0.338541512893  0.041840000000
CG311  CPD1  1  0.338541512893  0.041840000000
CG311  CC1A  1  0.355468588538  0.109105371453
CG311  CC1B  1  0.355468588538  0.109105371453
CG311   CC2  1  0.354577689820  0.105847757841
CG311   NS1  1  0.334087019303  0.187114168357
CG311   NS2  1  0.334087019303  0.187114168357
CG311   NHL  1  0.307360057758  0.187114168357
CG311  CTO1  1  0.338541512893  0.041840000000
CG311  CEL3  1  0.355468588538  0.109105371453
CG311  CTO2  1  0.338541512893  0.041840000000
CG311  HN3B  1  0.249451641079  0.089736802707
CG311  CN1A  1  0.347450500075  0.110698234855
CG311  CN3A  1  0.329632525712  0.177512086349
CG311  CN3B  1  0.329632525712  0.177512086349
CG311  CN3C  1  0.329632525712  0.177512086349
CG314     C  1  0.347450500075  0.138767581228
CG314    CA  1  0.346773417049  0.110698234855
CG314    CC  1  0.347450500075  0.110698234855
CG314    CD  1  0.347450500075  0.110698234855
CG314   CE1  1  0.355468588538  0.109105371453
CG314   CE2  1  0.354577689820  0.105847757841
CG314   CP1  1  0.338541512893  0.041840000000
CG314   CP2  1  0.338541512893  0.041840000000
CG314   CP3  1  0.338541512893  0.041840000000
CG314  CPH1  1  0.329632525712  0.093557084179
CG314  CPH2  1  0.329632525712  0.093557084179
CG314    CS  1  0.365268474438  0.138767581228
CG314   CPT  1  0.334977918021  0.131646486622
CG314    CY  1  0.346559601357  0.113045454929
CG314   CAI  1  0.346559601357  0.113045454929
CG314    CT  1  0.338541512893  0.041840000000
CG314   CT1  1  0.338541512893  0.041840000000
CG314   CT2  1  0.338541512893  0.041840000000
CG314  CT2A  1  0.338541512893  0.041840000000
CG314   CT3  1  0.338541512893  0.041840000000
CG314    C3  1  0.371950214824  0.059170695450
CG314     H  1  0.189271432669  0.089736802707
CG314    HA  1  0.286869387241  0.062058748940
CG314   HB1  1  0.286869387241  0.062058748940
CG314   HB2  1  0.288651184677  0.070011711020
CG314   HE1  1  0.280633096214  0.073666921749
CG314   HE2  1  0.281523994932  0.067464972838
CG314    HC  1  0.189271432669  0.089736802707
CG314    HP  1  0.290272620344  0.072469005789
CG314   HR1  1  0.249451641079  0.089736802707
CG314   HR2  1  0.231633666716  0.089736802707
CG314   HR3  1  0.300054688270  0.036952087465
CG314    HS  1  0.209361198763  0.132309697301
CG314   HA1  1  0.288651184677  0.088756043175
CG314   HA2  1  0.288651184677  0.077149148019
CG314   HA3  1  0.288651184677  0.064818249282
CG314     N  1  0.334087019303  0.004184000000
CG314   NC2  1  0.334087019303  0.187114168357
CG314   NH1  1  0.307360057758  0.187114168357
CG314   NH2  1  0.334087019303  0.187114168357
CG314   NH3  1  0.334087019303  0.187114168357
CG314    NP  1  0.334087019303  0.187114168357
CG314   NR1  1  0.334087019303  0.187114168357
CG314   NR2  1  0.334087019303  0.187114168357
CG314   NR3  1  0.334087019303  0.187114168357
CG314    NY  1  0.334087019303  0.187114168357
CG314     O  1  0.293996576986  0.144938011577
CG314    OB  1  0.293996576986  0.144938011577
CG314    OC  1  0.320723538531  0.144938011577
CG314   OH1  1  0.326959829558  0.163176000000
CG314    OS  1  0.326959829558  0.163176000000
CG314     S  1  0.347450500075  0.280671252536
CG314    SM  1  0.345223253279  0.257919081884
CG314    SS  1  0.365268474438  0.286840588481
CG314  HGA1  1  0.288651184677  0.088756043175
CG314  HGA2  1  0.288651184677  0.078275472531
CG314  HGA3  1  0.288651184677  0.064818249282
CG314  HGA4  1  0.280633096214  0.073666921749
CG314  HGA5  1  0.281523994932  0.067464972838
CG314  HGA6  1  0.286869387241  0.070011711020
CG314  HGA7  1  0.285087589805  0.072469005789
CG314 HGAAM0  1  0.283305792369  0.070011711020
CG314 HGAAM1  1  0.283305792369  0.070011711020
CG314 HGAAM2  1  0.281523994932  0.083680000000
CG314  HGP1  1  0.189271432669  0.089736802707
CG314  HGP2  1  0.189271432669  0.089736802707
CG314  HGP3  1  0.209361198763  0.132309697301
CG314  HGP4  1  0.189271432669  0.089736802707
CG314  HGP5  1  0.231633666716  0.089736802707
CG314 HGPAM1  1  0.247224394284  0.039692909190
CG314 HGPAM2  1  0.247224394284  0.041840000000
CG314 HGPAM3  1  0.246778944925  0.045833423612
CG314 HGR51  1  0.290272620344  0.072469005789
CG314 HGR52  1  0.249451641079  0.089736802707
CG314 HGR53  1  0.231633666716  0.089736802707
CG314 HGR61  1  0.290272620344  0.072469005789
CG314 HGR62  1  0.267269615442  0.089736802707
CG314 HGR63  1  0.249451641079  0.089736802707
CG314 HGR71  1  0.290272620344  0.072469005789
CG314 HGTIP3  1  0.189271432669  0.089736802707
CG314 CG1T1  1  0.333196120584  0.170981810495
CG314 CG1T2  1  0.346782326036  0.134409982486
CG314 CG1N1  1  0.335868816739  0.177512086349
CG314 CG2D1  1  0.355468588538  0.109105371453
CG314 CG2D2  1  0.354577689820  0.105847757841
CG314 CG2D1O  1  0.355468588538  0.109105371453
CG314 CG2D2O  1  0.355468588538  0.109105371453
CG314 CG2DC1  1  0.355468588538  0.109105371453
CG314 CG2DC2  1  0.355468588538  0.109105371453
CG314 CG2DC3  1  0.354577689820  0.105847757841
CG314 CG2N1  1  0.347450500075  0.138767581228
CG314 CG2N2  1  0.347450500075  0.138767581228
CG314 CG2O1  1  0.347450500075  0.138767581228
CG314 CG2O2  1  0.320723538531  0.130979917850
CG314 CG2O3  1  0.347450500075  0.110698234855
CG314 CG2O4  1  0.329632525712  0.102486650838
CG314 CG2O5  1  0.347450500075  0.125520000000
CG314 CG2O6  1  0.347450500075  0.110698234855
CG314 CG2O7  1  0.308518226092  0.100764063435
CG314 CG2R51  1  0.356359487256  0.093557084179
CG314 CG2R52  1  0.365268474438  0.059170695450
CG314 CG2R53  1  0.365268474438  0.059170695450
CG314 CG2R57  1  0.356359487256  0.093557084179
CG314 CG25C1  1  0.355468588538  0.109105371453
CG314 CG25C2  1  0.355468588538  0.109105371453
CG314 CG251O  1  0.355468588538  0.109105371453
CG314 CG252O  1  0.355468588538  0.109105371453
CG314 CG2R61  1  0.346773417049  0.110698234855
CG314 CG2R62  1  0.338541512893  0.125520000000
CG314 CG2R63  1  0.338541512893  0.132309697301
CG314 CG2R64  1  0.356359487256  0.083680000000
CG314 CG2R66  1  0.338541512893  0.110698234855
CG314 CG2R67  1  0.346773417049  0.110698234855
CG314 CG2RC0  1  0.334977918021  0.131646486622
CG314 CG2R71  1  0.346987232741  0.108300154755
CG314 CG2RC7  1  0.334977918021  0.131646486622
CG314 CG301  1  0.338541512893  0.041840000000
CG314 CG302  1  0.374177461619  0.059170695450
CG314 CG311  1  0.338541512893  0.041840000000
CG314 CG312  1  0.351904993665  0.085746484010
CG314 CG314  1  0.338541512893  0.041840000000
CG314 CG321  1  0.338541512893  0.041840000000
CG314 CG322  1  0.338541512893  0.102486650838
CG314 CG323  1  0.365268474438  0.138767581228
CG314 CG324  1  0.338541512893  0.041840000000
CG314 CG331  1  0.338541512893  0.041840000000
CG314 CG334  1  0.338541512893  0.041840000000
CG314 CG3C50  1  0.338541512893  0.041840000000
CG314 CG3C51  1  0.338541512893  0.041840000000
CG314 CG3C52  1  0.338541512893  0.041840000000
CG314 CG3C53  1  0.338541512893  0.041840000000
CG314 CG3C54  1  0.338541512893  0.041840000000
CG314 CG3C31  1  0.338541512893  0.041840000000
CG314 CG3C41  1  0.338541512893  0.041840000000
CG314 CG3RC1  1  0.338541512893  0.041840000000
CG314 CG3AM0  1  0.344777803920  0.110698234855
CG314 CG3AM1  1  0.345668702638  0.116852760686
CG314 CG3AM2  1  0.346559601357  0.118341390899
CG314 NG1T1  1  0.328741626994  0.177512086349
CG314 NG2D1  1  0.334087019303  0.187114168357
CG314 NG2S0  1  0.334087019303  0.004184000000
CG314 NG2S1  1  0.307360057758  0.187114168357
CG314 NG2S2  1  0.334087019303  0.187114168357
CG314 NG2S3  1  0.334087019303  0.187114168357
CG314 NG2O1  1  0.334087019303  0.187114168357
CG314 NG2P1  1  0.334087019303  0.187114168357
CG314 NG2R43  1  0.334087019303  0.187114168357
CG314 NG2R50  1  0.334087019303  0.187114168357
CG314 NG2R51  1  0.334087019303  0.187114168357
CG314 NG2R52  1  0.334087019303  0.187114168357
CG314 NG2R53  1  0.334087019303  0.187114168357
CG314 NG2R57  1  0.334087019303  0.187114168357
CG314 NG2R60  1  0.337650614175  0.102486650838
CG314 NG2R61  1  0.334087019303  0.187114168357
CG314 NG2R62  1  0.352795892384  0.093557084179
CG314 NG2R67  1  0.334087019303  0.187114168357
CG314 NG2RC0  1  0.334087019303  0.187114168357
CG314 NG301  1  0.347450500075  0.078275472531
CG314 NG311  1  0.347450500075  0.088756043175
CG314 NG321  1  0.346559601357  0.102486650838
CG314 NG331  1  0.345668702638  0.110698234855
CG314 NG3C51  1  0.334087019303  0.187114168357
CG314 NG3N1  1  0.351904993665  0.102486650838
CG314 NG3P0  1  0.334087019303  0.187114168357
CG314 NG3P1  1  0.334087019303  0.187114168357
CG314 NG3P2  1  0.334087019303  0.187114168357
CG314 NG3P3  1  0.334087019303  0.187114168357
CG314 OG2D1  1  0.293996576986  0.144938011577
CG314 OG2D2  1  0.320723538531  0.144938011577
CG314 OG2D3  1  0.293996576986  0.144938011577
CG314 OG2D4  1  0.320723538531  0.144938011577
CG314 OG2D5  1  0.320010819556  0.169954883425
CG314 OG2N1  1  0.320723538531  0.144938011577
CG314 OG2P1  1  0.320723538531  0.144938011577
CG314 OG2R50  1  0.320723538531  0.144938011577
CG314 OG3R60  1  0.316269044940  0.132309697301
CG314 OG301  1  0.316269044940  0.132309697301
CG314 OG302  1  0.316269044940  0.132309697301
CG314 OG303  1  0.316269044940  0.132309697301
CG314 OG304  1  0.316269044940  0.132309697301
CG314 OG311  1  0.326514380198  0.183381431383
CG314 OG312  1  0.325178032121  0.144938011577
CG314 OG3C31  1  0.316269044940  0.132309697301
CG314 OG3C51  1  0.316269044940  0.132309697301
CG314 OG3C61  1  0.316269044940  0.132309697301
CG314 OGTIP3  1  0.326799467788  0.163176000000
CG314 SG2D1  1  0.351904993665  0.314496560236
CG314 SG2R50  1  0.347450500075  0.280671252536
CG314 SG311  1  0.347450500075  0.280671252536
CG314 SG301  1  0.345223253279  0.257919081884
CG314 SG302  1  0.365268474438  0.286840588481
CG314 SG3O1  1  0.356359487256  0.286840588481
CG314 SG3O2  1  0.347450500075  0.247528778125
CG314 SG3O3  1  0.347450500075  0.247528778125
CG314  FGA1  1  0.314487247504  0.153729976257
CG314  FGA2  1  0.314487247504  0.135577095411
CG314  FGA3  1  0.311814551349  0.130309939452
CG314  FGP1  1  0.311814551349  0.130309939452
CG314  FGR1  1  0.320723538531  0.144938011577
CG314 CLGA1  1  0.339432411611  0.245040988571
CG314 CLGA3  1  0.339432411611  0.232955260941
CG314 BRGA1  1  0.344777803920  0.289876023155
CG314 BRGA2  1  0.351904993665  0.304599797767
CG314 BRGA3  1  0.347450500075  0.307459952514
CG314   SOD  1  0.294954293108  0.090610410351
CG314   CLA  1  0.371504765465  0.162045623205
CG314   PG0  1  0.360813980847  0.320014464673
CG314   PG1  1  0.360813980847  0.320014464673
CG314   PG2  1  0.360813980847  0.320014464673
CG314  ALG1  1  0.347450500075  0.337324864189
CG314   LPH  1  0.169270756447  0.000000000000
CG314 CLGR1  1  0.334977918021  0.200657590935
CG314 BRGR1  1  0.345668702638  0.236682781799
CG314  IGR1  1  0.368832069310  0.301712530731
CG314 SG2P1  1  0.355798221064  0.332305491450
CG314 OG2S1  1  0.318906105146  0.157831660601
CG314 SG2P2  1  0.352314807076  0.329421919951
CG314 SEGD1  1  0.363041227642  0.330244580395
CG314 BG201  1  0.396449929572  0.081561175077
CG314 CC301  1  0.338541512893  0.041840000000
CG314 CC3062  1  0.338541512893  0.041840000000
CG314 CC311  1  0.338541512893  0.041840000000
CG314 CC3161  1  0.338541512893  0.041840000000
CG314 CC3162  1  0.338541512893  0.041840000000
CG314 CC3163  1  0.338541512893  0.041840000000
CG314 CC321  1  0.338541512893  0.041840000000
CG314 CC3261  1  0.338541512893  0.041840000000
CG314 CC3263  1  0.338541512893  0.041840000000
CG314 CC331  1  0.338541512893  0.041840000000
CG314 CC2O1  1  0.347450500075  0.138767581228
CG314 CC2O2  1  0.347450500075  0.110698234855
CG314 CC2O3  1  0.347450500075  0.125520000000
CG314 CC2O4  1  0.329632525712  0.102486650838
CG314 CC2O5  1  0.320723538531  0.130979917850
CG314 OC2D1  1  0.293996576986  0.144938011577
CG314 OC2D2  1  0.320723538531  0.144938011577
CG314 OC2D3  1  0.293996576986  0.144938011577
CG314 OC2D4  1  0.293996576986  0.144938011577
CG314 OC3C61  1  0.316269044940  0.132309697301
CG314 OC311  1  0.326514380198  0.183381431383
CG314 NC2D1  1  0.307360057758  0.187114168357
CG314  HCP1  1  0.189271432669  0.089736802707
CG314  HCA1  1  0.288651184677  0.088756043175
CG314  HCA2  1  0.288651184677  0.078275472531
CG314  HCA3  1  0.288651184677  0.064818249282
CG314 CC312  1  0.338541512893  0.041840000000
CG314 CC322  1  0.338541512893  0.041840000000
CG314  HCR1  1  0.240542653898  0.089736802707
CG314 HCA3M  1  0.288651184677  0.064818249282
CG314 CC321C  1  0.338541512893  0.041840000000
CG314 CC321D  1  0.338541512893  0.041840000000
CG314 CC311C  1  0.338541512893  0.041840000000
CG314 CC311D  1  0.338541512893  0.041840000000
CG314 OC301  1  0.316269044940  0.132309697301
CG314 OC302  1  0.316269044940  0.132309697301
CG314 HCP1M  1  0.189271432669  0.089736802707
CG314 OC311M  1  0.326514380198  0.183381431383
CG314 OC3C5M  1  0.316269044940  0.132309697301
CG314 CC322C  1  0.338541512893  0.041840000000
CG314 HCA2C2  1  0.285087589805  0.078275472531
CG314 CC312C  1  0.338541512893  0.041840000000
CG314 HCA1C2  1  0.288651184677  0.088756043175
CG314 OC3C51  1  0.316269044940  0.132309697301
CG314 CC3152  1  0.338541512893  0.041840000000
CG314 CC3051  1  0.338541512893  0.041840000000
CG314 CC3251  1  0.338541512893  0.041840000000
CG314 CC3151  1  0.338541512893  0.041840000000
CG314 CC3153  1  0.338541512893  0.041840000000
CG314 OC2DP  1  0.320723538531  0.144938011577
CG314 OC312  1  0.326959829558  0.163176000000
CG314 OC30P  1  0.326959829558  0.163176000000
CG314    PC  1  0.360813980847  0.320014464673
CG314    SC  1  0.356359487256  0.286840588481
CG314 CC312D  1  0.338541512893  0.041840000000
CG314 OC303  1  0.316269044940  0.132309697301
CG314 NC311  1  0.347450500075  0.088756043175
CG314   HN1  1  0.189271432669  0.089736802707
CG314   HN2  1  0.189271432669  0.089736802707
CG314   HN3  1  0.267269615442  0.089736802707
CG314   HN4  1  0.189271432669  0.089736802707
CG314   HN5  1  0.189271432669  0.089736802707
CG314   HN6  1  0.286869387241  0.062058748940
CG314   HN7  1  0.286869387241  0.062058748940
CG314   HN8  1  0.288651184677  0.070011711020
CG314   HN9  1  0.288651184677  0.064818249282
CG314   NN1  1  0.334087019303  0.187114168357
CG314   NN2  1  0.334087019303  0.187114168357
CG314  NN2B  1  0.334087019303  0.187114168357
CG314  NN2G  1  0.334087019303  0.187114168357
CG314  NN2U  1  0.334087019303  0.187114168357
CG314   NN3  1  0.334087019303  0.187114168357
CG314  NN3A  1  0.334087019303  0.187114168357
CG314  NN3G  1  0.334087019303  0.187114168357
CG314   NN4  1  0.334087019303  0.187114168357
CG314   NN6  1  0.334087019303  0.187114168357
CG314   ON1  1  0.320723538531  0.144938011577
CG314  ON1C  1  0.320723538531  0.144938011577
CG314   ON2  1  0.326959829558  0.163176000000
CG314   ON3  1  0.320723538531  0.144938011577
CG314   ON4  1  0.326959829558  0.163176000000
CG314   ON5  1  0.326959829558  0.163176000000
CG314   ON6  1  0.326959829558  0.163176000000
CG314  ON6B  1  0.326959829558  0.163176000000
CG314   CN1  1  0.338541512893  0.132309697301
CG314  CN1T  1  0.338541512893  0.132309697301
CG314   CN2  1  0.338541512893  0.132309697301
CG314   CN3  1  0.338541512893  0.125520000000
CG314  CN3T  1  0.338541512893  0.125520000000
CG314   CN4  1  0.338541512893  0.114583559030
CG314   CN5  1  0.338541512893  0.114583559030
CG314  CN5G  1  0.338541512893  0.114583559030
CG314   CN7  1  0.338541512893  0.041840000000
CG314  CN7B  1  0.338541512893  0.041840000000
CG314   CN8  1  0.338541512893  0.041840000000
CG314  CN8B  1  0.338541512893  0.041840000000
CG314   CN9  1  0.338541512893  0.041840000000
CG314     P  1  0.360813980847  0.320014464673
CG314    P2  1  0.360813980847  0.320014464673
CG314    P3  1  0.360813980847  0.320014464673
CG314    P4  1  0.360813980847  0.320014464673
CG314   HOL  1  0.189271432669  0.089736802707
CG314  HAL1  1  0.286869387241  0.062058748940
CG314  HAL2  1  0.288651184677  0.070011711020
CG314  HAL3  1  0.288651184677  0.064818249282
CG314   HBL  1  0.286869387241  0.062058748940
CG314   HCL  1  0.189271432669  0.089736802707
CG314    HL  1  0.231633666716  0.089736802707
CG314  HEL1  1  0.280633096214  0.073666921749
CG314  HEL2  1  0.281523994932  0.067464972838
CG314    CL  1  0.347450500075  0.110698234855
CG314   CCL  1  0.347450500075  0.110698234855
CG314  CTL1  1  0.338541512893  0.041840000000
CG314  CTL2  1  0.338541512893  0.041840000000
CG314  CTL3  1  0.338541512893  0.041840000000
CG314  CTL5  1  0.338541512893  0.041840000000
CG314  CEL1  1  0.355468588538  0.109105371453
CG314  CEL2  1  0.354577689820  0.105847757841
CG314  CRL1  1  0.338541512893  0.041840000000
CG314  CRL2  1  0.338541512893  0.041840000000
CG314   OBL  1  0.293996576986  0.144938011577
CG314   OCL  1  0.320723538531  0.144938011577
CG314   O2L  1  0.320723538531  0.144938011577
CG314   OHL  1  0.326959829558  0.163176000000
CG314   OSL  1  0.316269044940  0.132309697301
CG314  OSLP  1  0.316269044940  0.132309697301
CG314  NH3L  1  0.334087019303  0.187114168357
CG314   NTL  1  0.334087019303  0.187114168357
CG314    SL  1  0.356359487256  0.286840588481
CG314    PL  1  0.360813980847  0.320014464673
CG314 HCA1A  1  0.288651184677  0.088756043175
CG314 HCA2A  1  0.288651184677  0.078275472531
CG314 HCA3A  1  0.288651184677  0.064818249282
CG314 CC30A  1  0.338541512893  0.041840000000
CG314 CC31A  1  0.338541512893  0.041840000000
CG314 CC32A  1  0.338541512893  0.041840000000
CG314 CC33A  1  0.338541512893  0.041840000000
CG314 CC326A  1  0.338541512893  0.041840000000
CG314 HCA25A  1  0.285087589805  0.078275472531
CG314 CC325A  1  0.338541512893  0.041840000000
CG314 CC325B  1  0.338541512893  0.041840000000
CG314 OC305A  1  0.316269044940  0.132309697301
CG314 OC30A  1  0.316269044940  0.132309697301
CG314  HSIO  1  0.189271432669  0.089736802707
CG314  HSIA  1  0.286869387241  0.062058748940
CG314   HAL  1  0.286869387241  0.062058748940
CG314    AL  1  0.365268474438  0.337324864189
CG314    SI  1  0.365268474438  0.324091246411
CG314  SIH3  1  0.365268474438  0.324091246411
CG314  OSIH  1  0.326959829558  0.163176000000
CG314  OSIE  1  0.326959829558  0.163176000000
CG314  OSIA  1  0.326959829558  0.163176000000
CG314   OAL  1  0.326959829558  0.163176000000
CG314    HT  1  0.189271432669  0.089736802707
CG314    OT  1  0.326799467788  0.163176000000
CG314   DUM  1  0.169270756447  0.000000000000
CG314    CM  1  0.356359487256  0.138767581228
CG314   CPA  1  0.329632525712  0.125520000000
CG314   CPB  1  0.329632525712  0.125520000000
CG314   CPM  1  0.329632525712  0.125520000000
CG314   CST  1  0.308518226092  0.100764063435
CG314  CT1X  1  0.338541512893  0.041840000000
CG314  CT2X  1  0.338541512893  0.041840000000
CG314  CT3X  1  0.338541512893  0.041840000000
CG314    HB  1  0.286869387241  0.062058748940
CG314   NPH  1  0.334087019303  0.187114168357
CG314    OM  1  0.320723538531  0.144938011577
CG314   OST  1  0.320010819556  0.169954883425
CG314   POT  1  0.326403017859  0.123410269913
CG314   CAL  1  0.291056611216  0.144938011577
CG314    MG  1  0.274842254546  0.051243325419
CG314   CES  1  0.356359487256  0.182376331798
CG314    ZN  1  0.266378716724  0.209200000000
CG314    FE  1  0.227179173126  0.000000000000
CG314    HE  1  0.301123766731  0.061020452073
CG314    NE  1  0.305578260322  0.122698965603
CG314  CLAL  1  0.339272049842  0.072469005789
CG314    AG  1  0.300901042052  0.893457908130
CG314    AU  1  0.300722862308  0.962320000000
CG314    CU  1  0.285800308779  0.908997471504
CG314    NI  1  0.282949432881  0.994525446633
CG314    PB  1  0.328073452955  0.716185437439
CG314    PD  1  0.294842930769  1.037598257516
CG314    PT  1  0.296001099102  1.168527606863
CG314   CAP  1  0.346773417049  0.110698234855
CG314    FA  1  0.320723538531  0.144938011577
CG314    CN  1  0.325178032121  0.187114168357
CG314    NC  1  0.334087019303  0.324091246411
CG314   OCA  1  0.293996576986  0.144938011577
CG314   COA  1  0.347450500075  0.138767581228
CG314   CF1  1  0.338541512893  0.102486650838
CG314   CF2  1  0.351904993665  0.085746484010
CG314   CF3  1  0.374177461619  0.059170695450
CG314   HF1  1  0.286869387241  0.070011711020
CG314   HF2  1  0.285087589805  0.072469005789
CG314    F1  1  0.314487247504  0.153729976257
CG314    F2  1  0.314487247504  0.135577095411
CG314    F3  1  0.311814551349  0.130309939452
CG314    OX  1  0.320723538531  0.144938011577
CG314    HX  1  0.189271432669  0.089736802707
CG314  HPER  1  0.189271432669  0.089736802707
CG314  OPER  1  0.318427692534  0.188901923946
CG314   LIT  1  0.284864865125  0.020196198771
CG314   RUB  1  0.338541512893  0.162045623205
CG314   BAR  1  0.337650614175  0.162045623205
CG314   CAD  1  0.290165712498  0.144938011577
CG314  ON2B  1  0.326959829558  0.163176000000
CG314    SP  1  0.365268474438  0.280671252536
CG314   HNP  1  0.290272620344  0.072469005789
CG314  HNE1  1  0.280633096214  0.073666921749
CG314  HNE2  1  0.281523994932  0.067464972838
CG314  CN3D  1  0.338541512893  0.125520000000
CG314  CNE1  1  0.355468588538  0.109105371453
CG314  CNE2  1  0.354577689820  0.105847757841
CG314   CNA  1  0.346773417049  0.110698234855
CG314  CNA2  1  0.338541512893  0.110698234855
CG314   CNG  1  0.347450500075  0.138767581228
CG314  NN1C  1  0.334087019303  0.187114168357
CG314  NN2C  1  0.334087019303  0.187114168357
CG314  NN3I  1  0.334087019303  0.187114168357
CG314   NNG  1  0.334087019303  0.187114168357
CG314   FNA  1  0.320723538531  0.144938011577
CG314  ON2M  1  0.316269044940  0.132309697301
CG314   CN6  1  0.338541512893  0.041840000000
CG314  CN7E  1  0.338541512893  0.041840000000
CG314  CT2P  1  0.338541512893  0.041840000000
CG314  CTD1  1  0.338541512893  0.041840000000
CG314  CPD1  1  0.338541512893  0.041840000000
CG314  CC1A  1  0.355468588538  0.109105371453
CG314  CC1B  1  0.355468588538  0.109105371453
CG314   CC2  1  0.354577689820  0.105847757841
CG314   NS1  1  0.334087019303  0.187114168357
CG314   NS2  1  0.334087019303  0.187114168357
CG314   NHL  1  0.307360057758  0.187114168357
CG314  CTO1  1  0.338541512893  0.041840000000
CG314  CEL3  1  0.355468588538  0.109105371453
CG314  CTO2  1  0.338541512893  0.041840000000
CG314  HN3B  1  0.249451641079  0.089736802707
CG314  CN1A  1  0.347450500075  0.110698234855
CG314  CN3A  1  0.329632525712  0.177512086349
CG314  CN3B  1  0.329632525712  0.177512086349
CG314  CN3C  1  0.329632525712  0.177512086349
CG321     C  1  0.347450500075  0.138767581228
CG321    CA  1  0.346773417049  0.110698234855
CG321    CC  1  0.347450500075  0.110698234855
CG321    CD  1  0.347450500075  0.110698234855
CG321   CE1  1  0.355468588538  0.109105371453
CG321   CE2  1  0.354577689820  0.105847757841
CG321   CP1  1  0.338541512893  0.041840000000
CG321   CP2  1  0.338541512893  0.041840000000
CG321   CP3  1  0.338541512893  0.041840000000
CG321  CPH1  1  0.329632525712  0.093557084179
CG321  CPH2  1  0.329632525712  0.093557084179
CG321    CS  1  0.365268474438  0.138767581228
CG321   CPT  1  0.334977918021  0.131646486622
CG321    CY  1  0.346559601357  0.113045454929
CG321   CAI  1  0.346559601357  0.113045454929
CG321    CT  1  0.338541512893  0.041840000000
CG321   CT1  1  0.338541512893  0.041840000000
CG321   CT2  1  0.338541512893  0.041840000000
CG321  CT2A  1  0.338541512893  0.041840000000
CG321   CT3  1  0.338541512893  0.041840000000
CG321    C3  1  0.371950214824  0.059170695450
CG321     H  1  0.189271432669  0.089736802707
CG321    HA  1  0.286869387241  0.062058748940
CG321   HB1  1  0.286869387241  0.062058748940
CG321   HB2  1  0.288651184677  0.070011711020
CG321   HE1  1  0.280633096214  0.073666921749
CG321   HE2  1  0.281523994932  0.067464972838
CG321    HC  1  0.189271432669  0.089736802707
CG321    HP  1  0.290272620344  0.072469005789
CG321   HR1  1  0.249451641079  0.089736802707
CG321   HR2  1  0.231633666716  0.089736802707
CG321   HR3  1  0.300054688270  0.036952087465
CG321    HS  1  0.209361198763  0.132309697301
CG321   HA1  1  0.288651184677  0.088756043175
CG321   HA2  1  0.288651184677  0.077149148019
CG321   HA3  1  0.288651184677  0.064818249282
CG321     N  1  0.334087019303  0.004184000000
CG321   NC2  1  0.334087019303  0.187114168357
CG321   NH1  1  0.307360057758  0.187114168357
CG321   NH2  1  0.334087019303  0.187114168357
CG321   NH3  1  0.334087019303  0.187114168357
CG321    NP  1  0.334087019303  0.187114168357
CG321   NR1  1  0.334087019303  0.187114168357
CG321   NR2  1  0.334087019303  0.187114168357
CG321   NR3  1  0.334087019303  0.187114168357
CG321    NY  1  0.334087019303  0.187114168357
CG321     O  1  0.293996576986  0.144938011577
CG321    OB  1  0.293996576986  0.144938011577
CG321    OC  1  0.320723538531  0.144938011577
CG321   OH1  1  0.326959829558  0.163176000000
CG321    OS  1  0.326959829558  0.163176000000
CG321     S  1  0.347450500075  0.280671252536
CG321    SM  1  0.345223253279  0.257919081884
CG321    SS  1  0.365268474438  0.286840588481
CG321  HGA1  1  0.288651184677  0.088756043175
CG321  HGA2  1  0.288651184677  0.078275472531
CG321  HGA3  1  0.288651184677  0.064818249282
CG321  HGA4  1  0.280633096214  0.073666921749
CG321  HGA5  1  0.281523994932  0.067464972838
CG321  HGA6  1  0.286869387241  0.070011711020
CG321  HGA7  1  0.285087589805  0.072469005789
CG321 HGAAM0  1  0.283305792369  0.070011711020
CG321 HGAAM1  1  0.283305792369  0.070011711020
CG321 HGAAM2  1  0.281523994932  0.083680000000
CG321  HGP1  1  0.189271432669  0.089736802707
CG321  HGP2  1  0.189271432669  0.089736802707
CG321  HGP3  1  0.209361198763  0.132309697301
CG321  HGP4  1  0.189271432669  0.089736802707
CG321  HGP5  1  0.231633666716  0.089736802707
CG321 HGPAM1  1  0.247224394284  0.039692909190
CG321 HGPAM2  1  0.247224394284  0.041840000000
CG321 HGPAM3  1  0.246778944925  0.045833423612
CG321 HGR51  1  0.290272620344  0.072469005789
CG321 HGR52  1  0.249451641079  0.089736802707
CG321 HGR53  1  0.231633666716  0.089736802707
CG321 HGR61  1  0.290272620344  0.072469005789
CG321 HGR62  1  0.267269615442  0.089736802707
CG321 HGR63  1  0.249451641079  0.089736802707
CG321 HGR71  1  0.290272620344  0.072469005789
CG321 HGTIP3  1  0.189271432669  0.089736802707
CG321 CG1T1  1  0.333196120584  0.170981810495
CG321 CG1T2  1  0.346782326036  0.134409982486
CG321 CG1N1  1  0.335868816739  0.177512086349
CG321 CG2D1  1  0.355468588538  0.109105371453
CG321 CG2D2  1  0.354577689820  0.105847757841
CG321 CG2D1O  1  0.355468588538  0.109105371453
CG321 CG2D2O  1  0.355468588538  0.109105371453
CG321 CG2DC1  1  0.355468588538  0.109105371453
CG321 CG2DC2  1  0.355468588538  0.109105371453
CG321 CG2DC3  1  0.354577689820  0.105847757841
CG321 CG2N1  1  0.347450500075  0.138767581228
CG321 CG2N2  1  0.347450500075  0.138767581228
CG321 CG2O1  1  0.347450500075  0.138767581228
CG321 CG2O2  1  0.320723538531  0.130979917850
CG321 CG2O3  1  0.347450500075  0.110698234855
CG321 CG2O4  1  0.329632525712  0.102486650838
CG321 CG2O5  1  0.347450500075  0.125520000000
CG321 CG2O6  1  0.347450500075  0.110698234855
CG321 CG2O7  1  0.308518226092  0.100764063435
CG321 CG2R51  1  0.356359487256  0.093557084179
CG321 CG2R52  1  0.365268474438  0.059170695450
CG321 CG2R53  1  0.365268474438  0.059170695450
CG321 CG2R57  1  0.356359487256  0.093557084179
CG321 CG25C1  1  0.355468588538  0.109105371453
CG321 CG25C2  1  0.355468588538  0.109105371453
CG321 CG251O  1  0.355468588538  0.109105371453
CG321 CG252O  1  0.355468588538  0.109105371453
CG321 CG2R61  1  0.346773417049  0.110698234855
CG321 CG2R62  1  0.338541512893  0.125520000000
CG321 CG2R63  1  0.338541512893  0.132309697301
CG321 CG2R64  1  0.356359487256  0.083680000000
CG321 CG2R66  1  0.338541512893  0.110698234855
CG321 CG2R67  1  0.346773417049  0.110698234855
CG321 CG2RC0  1  0.334977918021  0.131646486622
CG321 CG2R71  1  0.346987232741  0.108300154755
CG321 CG2RC7  1  0.334977918021  0.131646486622
CG321 CG301  1  0.338541512893  0.041840000000
CG321 CG302  1  0.374177461619  0.059170695450
CG321 CG311  1  0.338541512893  0.041840000000
CG321 CG312  1  0.351904993665  0.085746484010
CG321 CG314  1  0.338541512893  0.041840000000
CG321 CG321  1  0.338541512893  0.041840000000
CG321 CG322  1  0.338541512893  0.102486650838
CG321 CG323  1  0.365268474438  0.138767581228
CG321 CG324  1  0.338541512893  0.041840000000
CG321 CG331  1  0.338541512893  0.041840000000
CG321 CG334  1  0.338541512893  0.041840000000
CG321 CG3C50  1  0.338541512893  0.041840000000
CG321 CG3C51  1  0.338541512893  0.041840000000
CG321 CG3C52  1  0.338541512893  0.041840000000
CG321 CG3C53  1  0.338541512893  0.041840000000
CG321 CG3C54  1  0.338541512893  0.041840000000
CG321 CG3C31  1  0.338541512893  0.041840000000
CG321 CG3C41  1  0.338541512893  0.041840000000
CG321 CG3RC1  1  0.338541512893  0.041840000000
CG321 CG3AM0  1  0.344777803920  0.110698234855
CG321 CG3AM1  1  0.345668702638  0.116852760686
CG321 CG3AM2  1  0.346559601357  0.118341390899
CG321 NG1T1  1  0.328741626994  0.177512086349
CG321 NG2D1  1  0.334087019303  0.187114168357
CG321 NG2S0  1  0.334087019303  0.004184000000
CG321 NG2S1  1  0.307360057758  0.187114168357
CG321 NG2S2  1  0.334087019303  0.187114168357
CG321 NG2S3  1  0.334087019303  0.187114168357
CG321 NG2O1  1  0.334087019303  0.187114168357
CG321 NG2P1  1  0.334087019303  0.187114168357
CG321 NG2R43  1  0.334087019303  0.187114168357
CG321 NG2R50  1  0.334087019303  0.187114168357
CG321 NG2R51  1  0.334087019303  0.187114168357
CG321 NG2R52  1  0.334087019303  0.187114168357
CG321 NG2R53  1  0.334087019303  0.187114168357
CG321 NG2R57  1  0.334087019303  0.187114168357
CG321 NG2R60  1  0.337650614175  0.102486650838
CG321 NG2R61  1  0.334087019303  0.187114168357
CG321 NG2R62  1  0.352795892384  0.093557084179
CG321 NG2R67  1  0.334087019303  0.187114168357
CG321 NG2RC0  1  0.334087019303  0.187114168357
CG321 NG301  1  0.347450500075  0.078275472531
CG321 NG311  1  0.347450500075  0.088756043175
CG321 NG321  1  0.346559601357  0.102486650838
CG321 NG331  1  0.345668702638  0.110698234855
CG321 NG3C51  1  0.334087019303  0.187114168357
CG321 NG3N1  1  0.351904993665  0.102486650838
CG321 NG3P0  1  0.334087019303  0.187114168357
CG321 NG3P1  1  0.334087019303  0.187114168357
CG321 NG3P2  1  0.334087019303  0.187114168357
CG321 NG3P3  1  0.334087019303  0.187114168357
CG321 OG2D1  1  0.293996576986  0.144938011577
CG321 OG2D2  1  0.320723538531  0.144938011577
CG321 OG2D3  1  0.293996576986  0.144938011577
CG321 OG2D4  1  0.320723538531  0.144938011577
CG321 OG2D5  1  0.320010819556  0.169954883425
CG321 OG2N1  1  0.320723538531  0.144938011577
CG321 OG2P1  1  0.320723538531  0.144938011577
CG321 OG2R50  1  0.320723538531  0.144938011577
CG321 OG3R60  1  0.316269044940  0.132309697301
CG321 OG301  1  0.316269044940  0.132309697301
CG321 OG302  1  0.316269044940  0.132309697301
CG321 OG303  1  0.316269044940  0.132309697301
CG321 OG304  1  0.316269044940  0.132309697301
CG321 OG311  1  0.326514380198  0.183381431383
CG321 OG312  1  0.325178032121  0.144938011577
CG321 OG3C31  1  0.316269044940  0.132309697301
CG321 OG3C51  1  0.316269044940  0.132309697301
CG321 OG3C61  1  0.316269044940  0.132309697301
CG321 OGTIP3  1  0.326799467788  0.163176000000
CG321 SG2D1  1  0.351904993665  0.314496560236
CG321 SG2R50  1  0.347450500075  0.280671252536
CG321 SG311  1  0.347450500075  0.280671252536
CG321 SG301  1  0.345223253279  0.257919081884
CG321 SG302  1  0.365268474438  0.286840588481
CG321 SG3O1  1  0.356359487256  0.286840588481
CG321 SG3O2  1  0.347450500075  0.247528778125
CG321 SG3O3  1  0.347450500075  0.247528778125
CG321  FGA1  1  0.314487247504  0.153729976257
CG321  FGA2  1  0.314487247504  0.135577095411
CG321  FGA3  1  0.311814551349  0.130309939452
CG321  FGP1  1  0.311814551349  0.130309939452
CG321  FGR1  1  0.320723538531  0.144938011577
CG321 CLGA1  1  0.339432411611  0.245040988571
CG321 CLGA3  1  0.339432411611  0.232955260941
CG321 BRGA1  1  0.344777803920  0.289876023155
CG321 BRGA2  1  0.351904993665  0.304599797767
CG321 BRGA3  1  0.347450500075  0.307459952514
CG321   SOD  1  0.294954293108  0.090610410351
CG321   CLA  1  0.371504765465  0.162045623205
CG321   PG0  1  0.360813980847  0.320014464673
CG321   PG1  1  0.360813980847  0.320014464673
CG321   PG2  1  0.360813980847  0.320014464673
CG321  ALG1  1  0.347450500075  0.337324864189
CG321   LPH  1  0.169270756447  0.000000000000
CG321 CLGR1  1  0.334977918021  0.200657590935
CG321 BRGR1  1  0.345668702638  0.236682781799
CG321  IGR1  1  0.368832069310  0.301712530731
CG321 SG2P1  1  0.355798221064  0.332305491450
CG321 OG2S1  1  0.318906105146  0.157831660601
CG321 SG2P2  1  0.352314807076  0.329421919951
CG321 SEGD1  1  0.363041227642  0.330244580395
CG321 BG201  1  0.396449929572  0.081561175077
CG321 CC301  1  0.338541512893  0.041840000000
CG321 CC3062  1  0.338541512893  0.041840000000
CG321 CC311  1  0.338541512893  0.041840000000
CG321 CC3161  1  0.338541512893  0.041840000000
CG321 CC3162  1  0.338541512893  0.041840000000
CG321 CC3163  1  0.338541512893  0.041840000000
CG321 CC321  1  0.338541512893  0.041840000000
CG321 CC3261  1  0.338541512893  0.041840000000
CG321 CC3263  1  0.338541512893  0.041840000000
CG321 CC331  1  0.338541512893  0.041840000000
CG321 CC2O1  1  0.347450500075  0.138767581228
CG321 CC2O2  1  0.347450500075  0.110698234855
CG321 CC2O3  1  0.347450500075  0.125520000000
CG321 CC2O4  1  0.329632525712  0.102486650838
CG321 CC2O5  1  0.320723538531  0.130979917850
CG321 OC2D1  1  0.293996576986  0.144938011577
CG321 OC2D2  1  0.320723538531  0.144938011577
CG321 OC2D3  1  0.293996576986  0.144938011577
CG321 OC2D4  1  0.293996576986  0.144938011577
CG321 OC3C61  1  0.316269044940  0.132309697301
CG321 OC311  1  0.326514380198  0.183381431383
CG321 NC2D1  1  0.307360057758  0.187114168357
CG321  HCP1  1  0.189271432669  0.089736802707
CG321  HCA1  1  0.288651184677  0.088756043175
CG321  HCA2  1  0.288651184677  0.078275472531
CG321  HCA3  1  0.288651184677  0.064818249282
CG321 CC312  1  0.338541512893  0.041840000000
CG321 CC322  1  0.338541512893  0.041840000000
CG321  HCR1  1  0.240542653898  0.089736802707
CG321 HCA3M  1  0.288651184677  0.064818249282
CG321 CC321C  1  0.338541512893  0.041840000000
CG321 CC321D  1  0.338541512893  0.041840000000
CG321 CC311C  1  0.338541512893  0.041840000000
CG321 CC311D  1  0.338541512893  0.041840000000
CG321 OC301  1  0.316269044940  0.132309697301
CG321 OC302  1  0.316269044940  0.132309697301
CG321 HCP1M  1  0.189271432669  0.089736802707
CG321 OC311M  1  0.326514380198  0.183381431383
CG321 OC3C5M  1  0.316269044940  0.132309697301
CG321 CC322C  1  0.338541512893  0.041840000000
CG321 HCA2C2  1  0.285087589805  0.078275472531
CG321 CC312C  1  0.338541512893  0.041840000000
CG321 HCA1C2  1  0.288651184677  0.088756043175
CG321 OC3C51  1  0.316269044940  0.132309697301
CG321 CC3152  1  0.338541512893  0.041840000000
CG321 CC3051  1  0.338541512893  0.041840000000
CG321 CC3251  1  0.338541512893  0.041840000000
CG321 CC3151  1  0.338541512893  0.041840000000
CG321 CC3153  1  0.338541512893  0.041840000000
CG321 OC2DP  1  0.320723538531  0.144938011577
CG321 OC312  1  0.326959829558  0.163176000000
CG321 OC30P  1  0.326959829558  0.163176000000
CG321    PC  1  0.360813980847  0.320014464673
CG321    SC  1  0.356359487256  0.286840588481
CG321 CC312D  1  0.338541512893  0.041840000000
CG321 OC303  1  0.316269044940  0.132309697301
CG321 NC311  1  0.347450500075  0.088756043175
CG321   HN1  1  0.189271432669  0.089736802707
CG321   HN2  1  0.189271432669  0.089736802707
CG321   HN3  1  0.267269615442  0.089736802707
CG321   HN4  1  0.189271432669  0.089736802707
CG321   HN5  1  0.189271432669  0.089736802707
CG321   HN6  1  0.286869387241  0.062058748940
CG321   HN7  1  0.286869387241  0.062058748940
CG321   HN8  1  0.288651184677  0.070011711020
CG321   HN9  1  0.288651184677  0.064818249282
CG321   NN1  1  0.334087019303  0.187114168357
CG321   NN2  1  0.334087019303  0.187114168357
CG321  NN2B  1  0.334087019303  0.187114168357
CG321  NN2G  1  0.334087019303  0.187114168357
CG321  NN2U  1  0.334087019303  0.187114168357
CG321   NN3  1  0.334087019303  0.187114168357
CG321  NN3A  1  0.334087019303  0.187114168357
CG321  NN3G  1  0.334087019303  0.187114168357
CG321   NN4  1  0.334087019303  0.187114168357
CG321   NN6  1  0.334087019303  0.187114168357
CG321   ON1  1  0.320723538531  0.144938011577
CG321  ON1C  1  0.320723538531  0.144938011577
CG321   ON2  1  0.326959829558  0.163176000000
CG321   ON3  1  0.320723538531  0.144938011577
CG321   ON4  1  0.326959829558  0.163176000000
CG321   ON5  1  0.326959829558  0.163176000000
CG321   ON6  1  0.326959829558  0.163176000000
CG321  ON6B  1  0.326959829558  0.163176000000
CG321   CN1  1  0.338541512893  0.132309697301
CG321  CN1T  1  0.338541512893  0.132309697301
CG321   CN2  1  0.338541512893  0.132309697301
CG321   CN3  1  0.338541512893  0.125520000000
CG321  CN3T  1  0.338541512893  0.125520000000
CG321   CN4  1  0.338541512893  0.114583559030
CG321   CN5  1  0.338541512893  0.114583559030
CG321  CN5G  1  0.338541512893  0.114583559030
CG321   CN7  1  0.338541512893  0.041840000000
CG321  CN7B  1  0.338541512893  0.041840000000
CG321   CN8  1  0.338541512893  0.041840000000
CG321  CN8B  1  0.338541512893  0.041840000000
CG321   CN9  1  0.338541512893  0.041840000000
CG321     P  1  0.360813980847  0.320014464673
CG321    P2  1  0.360813980847  0.320014464673
CG321    P3  1  0.360813980847  0.320014464673
CG321    P4  1  0.360813980847  0.320014464673
CG321   HOL  1  0.189271432669  0.089736802707
CG321  HAL1  1  0.286869387241  0.062058748940
CG321  HAL2  1  0.288651184677  0.070011711020
CG321  HAL3  1  0.288651184677  0.064818249282
CG321   HBL  1  0.286869387241  0.062058748940
CG321   HCL  1  0.189271432669  0.089736802707
CG321    HL  1  0.231633666716  0.089736802707
CG321  HEL1  1  0.280633096214  0.073666921749
CG321  HEL2  1  0.281523994932  0.067464972838
CG321    CL  1  0.347450500075  0.110698234855
CG321   CCL  1  0.347450500075  0.110698234855
CG321  CTL1  1  0.338541512893  0.041840000000
CG321  CTL2  1  0.338541512893  0.041840000000
CG321  CTL3  1  0.338541512893  0.041840000000
CG321  CTL5  1  0.338541512893  0.041840000000
CG321  CEL1  1  0.355468588538  0.109105371453
CG321  CEL2  1  0.354577689820  0.105847757841
CG321  CRL1  1  0.338541512893  0.041840000000
CG321  CRL2  1  0.338541512893  0.041840000000
CG321   OBL  1  0.293996576986  0.144938011577
CG321   OCL  1  0.320723538531  0.144938011577
CG321   O2L  1  0.320723538531  0.144938011577
CG321   OHL  1  0.326959829558  0.163176000000
CG321   OSL  1  0.316269044940  0.132309697301
CG321  OSLP  1  0.316269044940  0.132309697301
CG321  NH3L  1  0.334087019303  0.187114168357
CG321   NTL  1  0.334087019303  0.187114168357
CG321    SL  1  0.356359487256  0.286840588481
CG321    PL  1  0.360813980847  0.320014464673
CG321 HCA1A  1  0.288651184677  0.088756043175
CG321 HCA2A  1  0.288651184677  0.078275472531
CG321 HCA3A  1  0.288651184677  0.064818249282
CG321 CC30A  1  0.338541512893  0.041840000000
CG321 CC31A  1  0.338541512893  0.041840000000
CG321 CC32A  1  0.338541512893  0.041840000000
CG321 CC33A  1  0.338541512893  0.041840000000
CG321 CC326A  1  0.338541512893  0.041840000000
CG321 HCA25A  1  0.285087589805  0.078275472531
CG321 CC325A  1  0.338541512893  0.041840000000
CG321 CC325B  1  0.338541512893  0.041840000000
CG321 OC305A  1  0.316269044940  0.132309697301
CG321 OC30A  1  0.316269044940  0.132309697301
CG321  HSIO  1  0.189271432669  0.089736802707
CG321  HSIA  1  0.286869387241  0.062058748940
CG321   HAL  1  0.286869387241  0.062058748940
CG321    AL  1  0.365268474438  0.337324864189
CG321    SI  1  0.365268474438  0.324091246411
CG321  SIH3  1  0.365268474438  0.324091246411
CG321  OSIH  1  0.326959829558  0.163176000000
CG321  OSIE  1  0.326959829558  0.163176000000
CG321  OSIA  1  0.326959829558  0.163176000000
CG321   OAL  1  0.326959829558  0.163176000000
CG321    HT  1  0.189271432669  0.089736802707
CG321    OT  1  0.326799467788  0.163176000000
CG321   DUM  1  0.169270756447  0.000000000000
CG321    CM  1  0.356359487256  0.138767581228
CG321   CPA  1  0.329632525712  0.125520000000
CG321   CPB  1  0.329632525712  0.125520000000
CG321   CPM  1  0.329632525712  0.125520000000
CG321   CST  1  0.308518226092  0.100764063435
CG321  CT1X  1  0.338541512893  0.041840000000
CG321  CT2X  1  0.338541512893  0.041840000000
CG321  CT3X  1  0.338541512893  0.041840000000
CG321    HB  1  0.286869387241  0.062058748940
CG321   NPH  1  0.334087019303  0.187114168357
CG321    OM  1  0.320723538531  0.144938011577
CG321   OST  1  0.320010819556  0.169954883425
CG321   POT  1  0.326403017859  0.123410269913
CG321   CAL  1  0.291056611216  0.144938011577
CG321    MG  1  0.274842254546  0.051243325419
CG321   CES  1  0.356359487256  0.182376331798
CG321    ZN  1  0.266378716724  0.209200000000
CG321    FE  1  0.227179173126  0.000000000000
CG321    HE  1  0.301123766731  0.061020452073
CG321    NE  1  0.305578260322  0.122698965603
CG321  CLAL  1  0.339272049842  0.072469005789
CG321    AG  1  0.300901042052  0.893457908130
CG321    AU  1  0.300722862308  0.962320000000
CG321    CU  1  0.285800308779  0.908997471504
CG321    NI  1  0.282949432881  0.994525446633
CG321    PB  1  0.328073452955  0.716185437439
CG321    PD  1  0.294842930769  1.037598257516
CG321    PT  1  0.296001099102  1.168527606863
CG321   CAP  1  0.346773417049  0.110698234855
CG321    FA  1  0.320723538531  0.144938011577
CG321    CN  1  0.325178032121  0.187114168357
CG321    NC  1  0.334087019303  0.324091246411
CG321   OCA  1  0.293996576986  0.144938011577
CG321   COA  1  0.347450500075  0.138767581228
CG321   CF1  1  0.338541512893  0.102486650838
CG321   CF2  1  0.351904993665  0.085746484010
CG321   CF3  1  0.374177461619  0.059170695450
CG321   HF1  1  0.286869387241  0.070011711020
CG321   HF2  1  0.285087589805  0.072469005789
CG321    F1  1  0.314487247504  0.153729976257
CG321    F2  1  0.314487247504  0.135577095411
CG321    F3  1  0.311814551349  0.130309939452
CG321    OX  1  0.320723538531  0.144938011577
CG321    HX  1  0.189271432669  0.089736802707
CG321  HPER  1  0.189271432669  0.089736802707
CG321  OPER  1  0.318427692534  0.188901923946
CG321   LIT  1  0.284864865125  0.020196198771
CG321   RUB  1  0.338541512893  0.162045623205
CG321   BAR  1  0.337650614175  0.162045623205
CG321   CAD  1  0.290165712498  0.144938011577
CG321  ON2B  1  0.326959829558  0.163176000000
CG321    SP  1  0.365268474438  0.280671252536
CG321   HNP  1  0.290272620344  0.072469005789
CG321  HNE1  1  0.280633096214  0.073666921749
CG321  HNE2  1  0.281523994932  0.067464972838
CG321  CN3D  1  0.338541512893  0.125520000000
CG321  CNE1  1  0.355468588538  0.109105371453
CG321  CNE2  1  0.354577689820  0.105847757841
CG321   CNA  1  0.346773417049  0.110698234855
CG321  CNA2  1  0.338541512893  0.110698234855
CG321   CNG  1  0.347450500075  0.138767581228
CG321  NN1C  1  0.334087019303  0.187114168357
CG321  NN2C  1  0.334087019303  0.187114168357
CG321  NN3I  1  0.334087019303  0.187114168357
CG321   NNG  1  0.334087019303  0.187114168357
CG321   FNA  1  0.320723538531  0.144938011577
CG321  ON2M  1  0.316269044940  0.132309697301
CG321   CN6  1  0.338541512893  0.041840000000
CG321  CN7E  1  0.338541512893  0.041840000000
CG321  CT2P  1  0.338541512893  0.041840000000
CG321  CTD1  1  0.338541512893  0.041840000000
CG321  CPD1  1  0.338541512893  0.041840000000
CG321  CC1A  1  0.355468588538  0.109105371453
CG321  CC1B  1  0.355468588538  0.109105371453
CG321   CC2  1  0.354577689820  0.105847757841
CG321   NS1  1  0.334087019303  0.187114168357
CG321   NS2  1  0.334087019303  0.187114168357
CG321   NHL  1  0.307360057758  0.187114168357
CG321  CTO1  1  0.338541512893  0.041840000000
CG321  CEL3  1  0.355468588538  0.109105371453
CG321  CTO2  1  0.338541512893  0.041840000000
CG321  HN3B  1  0.249451641079  0.089736802707
CG321  CN1A  1  0.347450500075  0.110698234855
CG321  CN3A  1  0.329632525712  0.177512086349
CG321  CN3B  1  0.329632525712  0.177512086349
CG321  CN3C  1  0.329632525712  0.177512086349
CG324     C  1  0.347450500075  0.138767581228
CG324    CA  1  0.346773417049  0.110698234855
CG324    CC  1  0.347450500075  0.110698234855
CG324    CD  1  0.347450500075  0.110698234855
CG324   CE1  1  0.355468588538  0.109105371453
CG324   CE2  1  0.354577689820  0.105847757841
CG324   CP1  1  0.338541512893  0.041840000000
CG324   CP2  1  0.338541512893  0.041840000000
CG324   CP3  1  0.338541512893  0.041840000000
CG324  CPH1  1  0.329632525712  0.093557084179
CG324  CPH2  1  0.329632525712  0.093557084179
CG324    CS  1  0.365268474438  0.138767581228
CG324   CPT  1  0.334977918021  0.131646486622
CG324    CY  1  0.346559601357  0.113045454929
CG324   CAI  1  0.346559601357  0.113045454929
CG324    CT  1  0.338541512893  0.041840000000
CG324   CT1  1  0.338541512893  0.041840000000
CG324   CT2  1  0.338541512893  0.041840000000
CG324  CT2A  1  0.338541512893  0.041840000000
CG324   CT3  1  0.338541512893  0.041840000000
CG324    C3  1  0.371950214824  0.059170695450
CG324     H  1  0.189271432669  0.089736802707
CG324    HA  1  0.286869387241  0.062058748940
CG324   HB1  1  0.286869387241  0.062058748940
CG324   HB2  1  0.288651184677  0.070011711020
CG324   HE1  1  0.280633096214  0.073666921749
CG324   HE2  1  0.281523994932  0.067464972838
CG324    HC  1  0.189271432669  0.089736802707
CG324    HP  1  0.290272620344  0.072469005789
CG324   HR1  1  0.249451641079  0.089736802707
CG324   HR2  1  0.231633666716  0.089736802707
CG324   HR3  1  0.300054688270  0.036952087465
CG324    HS  1  0.209361198763  0.132309697301
CG324   HA1  1  0.288651184677  0.088756043175
CG324   HA2  1  0.288651184677  0.077149148019
CG324   HA3  1  0.288651184677  0.064818249282
CG324     N  1  0.334087019303  0.004184000000
CG324   NC2  1  0.334087019303  0.187114168357
CG324   NH1  1  0.307360057758  0.187114168357
CG324   NH2  1  0.334087019303  0.187114168357
CG324   NH3  1  0.334087019303  0.187114168357
CG324    NP  1  0.334087019303  0.187114168357
CG324   NR1  1  0.334087019303  0.187114168357
CG324   NR2  1  0.334087019303  0.187114168357
CG324   NR3  1  0.334087019303  0.187114168357
CG324    NY  1  0.334087019303  0.187114168357
CG324     O  1  0.293996576986  0.144938011577
CG324    OB  1  0.293996576986  0.144938011577
CG324    OC  1  0.320723538531  0.144938011577
CG324   OH1  1  0.326959829558  0.163176000000
CG324    OS  1  0.326959829558  0.163176000000
CG324     S  1  0.347450500075  0.280671252536
CG324    SM  1  0.345223253279  0.257919081884
CG324    SS  1  0.365268474438  0.286840588481
CG324  HGA1  1  0.288651184677  0.088756043175
CG324  HGA2  1  0.288651184677  0.078275472531
CG324  HGA3  1  0.288651184677  0.064818249282
CG324  HGA4  1  0.280633096214  0.073666921749
CG324  HGA5  1  0.281523994932  0.067464972838
CG324  HGA6  1  0.286869387241  0.070011711020
CG324  HGA7  1  0.285087589805  0.072469005789
CG324 HGAAM0  1  0.283305792369  0.070011711020
CG324 HGAAM1  1  0.283305792369  0.070011711020
CG324 HGAAM2  1  0.281523994932  0.083680000000
CG324  HGP1  1  0.189271432669  0.089736802707
CG324  HGP2  1  0.189271432669  0.089736802707
CG324  HGP3  1  0.209361198763  0.132309697301
CG324  HGP4  1  0.189271432669  0.089736802707
CG324  HGP5  1  0.231633666716  0.089736802707
CG324 HGPAM1  1  0.247224394284  0.039692909190
CG324 HGPAM2  1  0.247224394284  0.041840000000
CG324 HGPAM3  1  0.246778944925  0.045833423612
CG324 HGR51  1  0.290272620344  0.072469005789
CG324 HGR52  1  0.249451641079  0.089736802707
CG324 HGR53  1  0.231633666716  0.089736802707
CG324 HGR61  1  0.290272620344  0.072469005789
CG324 HGR62  1  0.267269615442  0.089736802707
CG324 HGR63  1  0.249451641079  0.089736802707
CG324 HGR71  1  0.290272620344  0.072469005789
CG324 HGTIP3  1  0.189271432669  0.089736802707
CG324 CG1T1  1  0.333196120584  0.170981810495
CG324 CG1T2  1  0.346782326036  0.134409982486
CG324 CG1N1  1  0.335868816739  0.177512086349
CG324 CG2D1  1  0.355468588538  0.109105371453
CG324 CG2D2  1  0.354577689820  0.105847757841
CG324 CG2D1O  1  0.355468588538  0.109105371453
CG324 CG2D2O  1  0.355468588538  0.109105371453
CG324 CG2DC1  1  0.355468588538  0.109105371453
CG324 CG2DC2  1  0.355468588538  0.109105371453
CG324 CG2DC3  1  0.354577689820  0.105847757841
CG324 CG2N1  1  0.347450500075  0.138767581228
CG324 CG2N2  1  0.347450500075  0.138767581228
CG324 CG2O1  1  0.347450500075  0.138767581228
CG324 CG2O2  1  0.320723538531  0.130979917850
CG324 CG2O3  1  0.347450500075  0.110698234855
CG324 CG2O4  1  0.329632525712  0.102486650838
CG324 CG2O5  1  0.347450500075  0.125520000000
CG324 CG2O6  1  0.347450500075  0.110698234855
CG324 CG2O7  1  0.308518226092  0.100764063435
CG324 CG2R51  1  0.356359487256  0.093557084179
CG324 CG2R52  1  0.365268474438  0.059170695450
CG324 CG2R53  1  0.365268474438  0.059170695450
CG324 CG2R57  1  0.356359487256  0.093557084179
CG324 CG25C1  1  0.355468588538  0.109105371453
CG324 CG25C2  1  0.355468588538  0.109105371453
CG324 CG251O  1  0.355468588538  0.109105371453
CG324 CG252O  1  0.355468588538  0.109105371453
CG324 CG2R61  1  0.346773417049  0.110698234855
CG324 CG2R62  1  0.338541512893  0.125520000000
CG324 CG2R63  1  0.338541512893  0.132309697301
CG324 CG2R64  1  0.356359487256  0.083680000000
CG324 CG2R66  1  0.338541512893  0.110698234855
CG324 CG2R67  1  0.346773417049  0.110698234855
CG324 CG2RC0  1  0.334977918021  0.131646486622
CG324 CG2R71  1  0.346987232741  0.108300154755
CG324 CG2RC7  1  0.334977918021  0.131646486622
CG324 CG301  1  0.338541512893  0.041840000000
CG324 CG302  1  0.374177461619  0.059170695450
CG324 CG311  1  0.338541512893  0.041840000000
CG324 CG312  1  0.351904993665  0.085746484010
CG324 CG314  1  0.338541512893  0.041840000000
CG324 CG321  1  0.338541512893  0.041840000000
CG324 CG322  1  0.338541512893  0.102486650838
CG324 CG323  1  0.365268474438  0.138767581228
CG324 CG324  1  0.338541512893  0.041840000000
CG324 CG331  1  0.338541512893  0.041840000000
CG324 CG334  1  0.338541512893  0.041840000000
CG324 CG3C50  1  0.338541512893  0.041840000000
CG324 CG3C51  1  0.338541512893  0.041840000000
CG324 CG3C52  1  0.338541512893  0.041840000000
CG324 CG3C53  1  0.338541512893  0.041840000000
CG324 CG3C54  1  0.338541512893  0.041840000000
CG324 CG3C31  1  0.338541512893  0.041840000000
CG324 CG3C41  1  0.338541512893  0.041840000000
CG324 CG3RC1  1  0.338541512893  0.041840000000
CG324 CG3AM0  1  0.344777803920  0.110698234855
CG324 CG3AM1  1  0.345668702638  0.116852760686
CG324 CG3AM2  1  0.346559601357  0.118341390899
CG324 NG1T1  1  0.328741626994  0.177512086349
CG324 NG2D1  1  0.334087019303  0.187114168357
CG324 NG2S0  1  0.334087019303  0.004184000000
CG324 NG2S1  1  0.307360057758  0.187114168357
CG324 NG2S2  1  0.334087019303  0.187114168357
CG324 NG2S3  1  0.334087019303  0.187114168357
CG324 NG2O1  1  0.334087019303  0.187114168357
CG324 NG2P1  1  0.334087019303  0.187114168357
CG324 NG2R43  1  0.334087019303  0.187114168357
CG324 NG2R50  1  0.334087019303  0.187114168357
CG324 NG2R51  1  0.334087019303  0.187114168357
CG324 NG2R52  1  0.334087019303  0.187114168357
CG324 NG2R53  1  0.334087019303  0.187114168357
CG324 NG2R57  1  0.334087019303  0.187114168357
CG324 NG2R60  1  0.337650614175  0.102486650838
CG324 NG2R61  1  0.334087019303  0.187114168357
CG324 NG2R62  1  0.352795892384  0.093557084179
CG324 NG2R67  1  0.334087019303  0.187114168357
CG324 NG2RC0  1  0.334087019303  0.187114168357
CG324 NG301  1  0.347450500075  0.078275472531
CG324 NG311  1  0.347450500075  0.088756043175
CG324 NG321  1  0.346559601357  0.102486650838
CG324 NG331  1  0.345668702638  0.110698234855
CG324 NG3C51  1  0.334087019303  0.187114168357
CG324 NG3N1  1  0.351904993665  0.102486650838
CG324 NG3P0  1  0.334087019303  0.187114168357
CG324 NG3P1  1  0.334087019303  0.187114168357
CG324 NG3P2  1  0.334087019303  0.187114168357
CG324 NG3P3  1  0.334087019303  0.187114168357
CG324 OG2D1  1  0.293996576986  0.144938011577
CG324 OG2D2  1  0.320723538531  0.144938011577
CG324 OG2D3  1  0.293996576986  0.144938011577
CG324 OG2D4  1  0.320723538531  0.144938011577
CG324 OG2D5  1  0.320010819556  0.169954883425
CG324 OG2N1  1  0.320723538531  0.144938011577
CG324 OG2P1  1  0.320723538531  0.144938011577
CG324 OG2R50  1  0.320723538531  0.144938011577
CG324 OG3R60  1  0.316269044940  0.132309697301
CG324 OG301  1  0.316269044940  0.132309697301
CG324 OG302  1  0.316269044940  0.132309697301
CG324 OG303  1  0.316269044940  0.132309697301
CG324 OG304  1  0.316269044940  0.132309697301
CG324 OG311  1  0.326514380198  0.183381431383
CG324 OG312  1  0.325178032121  0.144938011577
CG324 OG3C31  1  0.316269044940  0.132309697301
CG324 OG3C51  1  0.316269044940  0.132309697301
CG324 OG3C61  1  0.316269044940  0.132309697301
CG324 OGTIP3  1  0.326799467788  0.163176000000
CG324 SG2D1  1  0.351904993665  0.314496560236
CG324 SG2R50  1  0.347450500075  0.280671252536
CG324 SG311  1  0.347450500075  0.280671252536
CG324 SG301  1  0.345223253279  0.257919081884
CG324 SG302  1  0.365268474438  0.286840588481
CG324 SG3O1  1  0.356359487256  0.286840588481
CG324 SG3O2  1  0.347450500075  0.247528778125
CG324 SG3O3  1  0.347450500075  0.247528778125
CG324  FGA1  1  0.314487247504  0.153729976257
CG324  FGA2  1  0.314487247504  0.135577095411
CG324  FGA3  1  0.311814551349  0.130309939452
CG324  FGP1  1  0.311814551349  0.130309939452
CG324  FGR1  1  0.320723538531  0.144938011577
CG324 CLGA1  1  0.339432411611  0.245040988571
CG324 CLGA3  1  0.339432411611  0.232955260941
CG324 BRGA1  1  0.344777803920  0.289876023155
CG324 BRGA2  1  0.351904993665  0.304599797767
CG324 BRGA3  1  0.347450500075  0.307459952514
CG324   SOD  1  0.294954293108  0.090610410351
CG324   CLA  1  0.371504765465  0.162045623205
CG324   PG0  1  0.360813980847  0.320014464673
CG324   PG1  1  0.360813980847  0.320014464673
CG324   PG2  1  0.360813980847  0.320014464673
CG324  ALG1  1  0.347450500075  0.337324864189
CG324   LPH  1  0.169270756447  0.000000000000
CG324 CLGR1  1  0.334977918021  0.200657590935
CG324 BRGR1  1  0.345668702638  0.236682781799
CG324  IGR1  1  0.368832069310  0.301712530731
CG324 SG2P1  1  0.355798221064  0.332305491450
CG324 OG2S1  1  0.318906105146  0.157831660601
CG324 SG2P2  1  0.352314807076  0.329421919951
CG324 SEGD1  1  0.363041227642  0.330244580395
CG324 BG201  1  0.396449929572  0.081561175077
CG324 CC301  1  0.338541512893  0.041840000000
CG324 CC3062  1  0.338541512893  0.041840000000
CG324 CC311  1  0.338541512893  0.041840000000
CG324 CC3161  1  0.338541512893  0.041840000000
CG324 CC3162  1  0.338541512893  0.041840000000
CG324 CC3163  1  0.338541512893  0.041840000000
CG324 CC321  1  0.338541512893  0.041840000000
CG324 CC3261  1  0.338541512893  0.041840000000
CG324 CC3263  1  0.338541512893  0.041840000000
CG324 CC331  1  0.338541512893  0.041840000000
CG324 CC2O1  1  0.347450500075  0.138767581228
CG324 CC2O2  1  0.347450500075  0.110698234855
CG324 CC2O3  1  0.347450500075  0.125520000000
CG324 CC2O4  1  0.329632525712  0.102486650838
CG324 CC2O5  1  0.320723538531  0.130979917850
CG324 OC2D1  1  0.293996576986  0.144938011577
CG324 OC2D2  1  0.320723538531  0.144938011577
CG324 OC2D3  1  0.293996576986  0.144938011577
CG324 OC2D4  1  0.293996576986  0.144938011577
CG324 OC3C61  1  0.316269044940  0.132309697301
CG324 OC311  1  0.326514380198  0.183381431383
CG324 NC2D1  1  0.307360057758  0.187114168357
CG324  HCP1  1  0.189271432669  0.089736802707
CG324  HCA1  1  0.288651184677  0.088756043175
CG324  HCA2  1  0.288651184677  0.078275472531
CG324  HCA3  1  0.288651184677  0.064818249282
CG324 CC312  1  0.338541512893  0.041840000000
CG324 CC322  1  0.338541512893  0.041840000000
CG324  HCR1  1  0.240542653898  0.089736802707
CG324 HCA3M  1  0.288651184677  0.064818249282
CG324 CC321C  1  0.338541512893  0.041840000000
CG324 CC321D  1  0.338541512893  0.041840000000
CG324 CC311C  1  0.338541512893  0.041840000000
CG324 CC311D  1  0.338541512893  0.041840000000
CG324 OC301  1  0.316269044940  0.132309697301
CG324 OC302  1  0.316269044940  0.132309697301
CG324 HCP1M  1  0.189271432669  0.089736802707
CG324 OC311M  1  0.326514380198  0.183381431383
CG324 OC3C5M  1  0.316269044940  0.132309697301
CG324 CC322C  1  0.338541512893  0.041840000000
CG324 HCA2C2  1  0.285087589805  0.078275472531
CG324 CC312C  1  0.338541512893  0.041840000000
CG324 HCA1C2  1  0.288651184677  0.088756043175
CG324 OC3C51  1  0.316269044940  0.132309697301
CG324 CC3152  1  0.338541512893  0.041840000000
CG324 CC3051  1  0.338541512893  0.041840000000
CG324 CC3251  1  0.338541512893  0.041840000000
CG324 CC3151  1  0.338541512893  0.041840000000
CG324 CC3153  1  0.338541512893  0.041840000000
CG324 OC2DP  1  0.320723538531  0.144938011577
CG324 OC312  1  0.326959829558  0.163176000000
CG324 OC30P  1  0.326959829558  0.163176000000
CG324    PC  1  0.360813980847  0.320014464673
CG324    SC  1  0.356359487256  0.286840588481
CG324 CC312D  1  0.338541512893  0.041840000000
CG324 OC303  1  0.316269044940  0.132309697301
CG324 NC311  1  0.347450500075  0.088756043175
CG324   HN1  1  0.189271432669  0.089736802707
CG324   HN2  1  0.189271432669  0.089736802707
CG324   HN3  1  0.267269615442  0.089736802707
CG324   HN4  1  0.189271432669  0.089736802707
CG324   HN5  1  0.189271432669  0.089736802707
CG324   HN6  1  0.286869387241  0.062058748940
CG324   HN7  1  0.286869387241  0.062058748940
CG324   HN8  1  0.288651184677  0.070011711020
CG324   HN9  1  0.288651184677  0.064818249282
CG324   NN1  1  0.334087019303  0.187114168357
CG324   NN2  1  0.334087019303  0.187114168357
CG324  NN2B  1  0.334087019303  0.187114168357
CG324  NN2G  1  0.334087019303  0.187114168357
CG324  NN2U  1  0.334087019303  0.187114168357
CG324   NN3  1  0.334087019303  0.187114168357
CG324  NN3A  1  0.334087019303  0.187114168357
CG324  NN3G  1  0.334087019303  0.187114168357
CG324   NN4  1  0.334087019303  0.187114168357
CG324   NN6  1  0.334087019303  0.187114168357
CG324   ON1  1  0.320723538531  0.144938011577
CG324  ON1C  1  0.320723538531  0.144938011577
CG324   ON2  1  0.326959829558  0.163176000000
CG324   ON3  1  0.320723538531  0.144938011577
CG324   ON4  1  0.326959829558  0.163176000000
CG324   ON5  1  0.326959829558  0.163176000000
CG324   ON6  1  0.326959829558  0.163176000000
CG324  ON6B  1  0.326959829558  0.163176000000
CG324   CN1  1  0.338541512893  0.132309697301
CG324  CN1T  1  0.338541512893  0.132309697301
CG324   CN2  1  0.338541512893  0.132309697301
CG324   CN3  1  0.338541512893  0.125520000000
CG324  CN3T  1  0.338541512893  0.125520000000
CG324   CN4  1  0.338541512893  0.114583559030
CG324   CN5  1  0.338541512893  0.114583559030
CG324  CN5G  1  0.338541512893  0.114583559030
CG324   CN7  1  0.338541512893  0.041840000000
CG324  CN7B  1  0.338541512893  0.041840000000
CG324   CN8  1  0.338541512893  0.041840000000
CG324  CN8B  1  0.338541512893  0.041840000000
CG324   CN9  1  0.338541512893  0.041840000000
CG324     P  1  0.360813980847  0.320014464673
CG324    P2  1  0.360813980847  0.320014464673
CG324    P3  1  0.360813980847  0.320014464673
CG324    P4  1  0.360813980847  0.320014464673
CG324   HOL  1  0.189271432669  0.089736802707
CG324  HAL1  1  0.286869387241  0.062058748940
CG324  HAL2  1  0.288651184677  0.070011711020
CG324  HAL3  1  0.288651184677  0.064818249282
CG324   HBL  1  0.286869387241  0.062058748940
CG324   HCL  1  0.189271432669  0.089736802707
CG324    HL  1  0.231633666716  0.089736802707
CG324  HEL1  1  0.280633096214  0.073666921749
CG324  HEL2  1  0.281523994932  0.067464972838
CG324    CL  1  0.347450500075  0.110698234855
CG324   CCL  1  0.347450500075  0.110698234855
CG324  CTL1  1  0.338541512893  0.041840000000
CG324  CTL2  1  0.338541512893  0.041840000000
CG324  CTL3  1  0.338541512893  0.041840000000
CG324  CTL5  1  0.338541512893  0.041840000000
CG324  CEL1  1  0.355468588538  0.109105371453
CG324  CEL2  1  0.354577689820  0.105847757841
CG324  CRL1  1  0.338541512893  0.041840000000
CG324  CRL2  1  0.338541512893  0.041840000000
CG324   OBL  1  0.293996576986  0.144938011577
CG324   OCL  1  0.320723538531  0.144938011577
CG324   O2L  1  0.320723538531  0.144938011577
CG324   OHL  1  0.326959829558  0.163176000000
CG324   OSL  1  0.316269044940  0.132309697301
CG324  OSLP  1  0.316269044940  0.132309697301
CG324  NH3L  1  0.334087019303  0.187114168357
CG324   NTL  1  0.334087019303  0.187114168357
CG324    SL  1  0.356359487256  0.286840588481
CG324    PL  1  0.360813980847  0.320014464673
CG324 HCA1A  1  0.288651184677  0.088756043175
CG324 HCA2A  1  0.288651184677  0.078275472531
CG324 HCA3A  1  0.288651184677  0.064818249282
CG324 CC30A  1  0.338541512893  0.041840000000
CG324 CC31A  1  0.338541512893  0.041840000000
CG324 CC32A  1  0.338541512893  0.041840000000
CG324 CC33A  1  0.338541512893  0.041840000000
CG324 CC326A  1  0.338541512893  0.041840000000
CG324 HCA25A  1  0.285087589805  0.078275472531
CG324 CC325A  1  0.338541512893  0.041840000000
CG324 CC325B  1  0.338541512893  0.041840000000
CG324 OC305A  1  0.316269044940  0.132309697301
CG324 OC30A  1  0.316269044940  0.132309697301
CG324  HSIO  1  0.189271432669  0.089736802707
CG324  HSIA  1  0.286869387241  0.062058748940
CG324   HAL  1  0.286869387241  0.062058748940
CG324    AL  1  0.365268474438  0.337324864189
CG324    SI  1  0.365268474438  0.324091246411
CG324  SIH3  1  0.365268474438  0.324091246411
CG324  OSIH  1  0.326959829558  0.163176000000
CG324  OSIE  1  0.326959829558  0.163176000000
CG324  OSIA  1  0.326959829558  0.163176000000
CG324   OAL  1  0.326959829558  0.163176000000
CG324    HT  1  0.189271432669  0.089736802707
CG324    OT  1  0.326799467788  0.163176000000
CG324   DUM  1  0.169270756447  0.000000000000
CG324    CM  1  0.356359487256  0.138767581228
CG324   CPA  1  0.329632525712  0.125520000000
CG324   CPB  1  0.329632525712  0.125520000000
CG324   CPM  1  0.329632525712  0.125520000000
CG324   CST  1  0.308518226092  0.100764063435
CG324  CT1X  1  0.338541512893  0.041840000000
CG324  CT2X  1  0.338541512893  0.041840000000
CG324  CT3X  1  0.338541512893  0.041840000000
CG324    HB  1  0.286869387241  0.062058748940
CG324   NPH  1  0.334087019303  0.187114168357
CG324    OM  1  0.320723538531  0.144938011577
CG324   OST  1  0.320010819556  0.169954883425
CG324   POT  1  0.326403017859  0.123410269913
CG324   CAL  1  0.291056611216  0.144938011577
CG324    MG  1  0.274842254546  0.051243325419
CG324   CES  1  0.356359487256  0.182376331798
CG324    ZN  1  0.266378716724  0.209200000000
CG324    FE  1  0.227179173126  0.000000000000
CG324    HE  1  0.301123766731  0.061020452073
CG324    NE  1  0.305578260322  0.122698965603
CG324  CLAL  1  0.339272049842  0.072469005789
CG324    AG  1  0.300901042052  0.893457908130
CG324    AU  1  0.300722862308  0.962320000000
CG324    CU  1  0.285800308779  0.908997471504
CG324    NI  1  0.282949432881  0.994525446633
CG324    PB  1  0.328073452955  0.716185437439
CG324    PD  1  0.294842930769  1.037598257516
CG324    PT  1  0.296001099102  1.168527606863
CG324   CAP  1  0.346773417049  0.110698234855
CG324    FA  1  0.320723538531  0.144938011577
CG324    CN  1  0.325178032121  0.187114168357
CG324    NC  1  0.334087019303  0.324091246411
CG324   OCA  1  0.293996576986  0.144938011577
CG324   COA  1  0.347450500075  0.138767581228
CG324   CF1  1  0.338541512893  0.102486650838
CG324   CF2  1  0.351904993665  0.085746484010
CG324   CF3  1  0.374177461619  0.059170695450
CG324   HF1  1  0.286869387241  0.070011711020
CG324   HF2  1  0.285087589805  0.072469005789
CG324    F1  1  0.314487247504  0.153729976257
CG324    F2  1  0.314487247504  0.135577095411
CG324    F3  1  0.311814551349  0.130309939452
CG324    OX  1  0.320723538531  0.144938011577
CG324    HX  1  0.189271432669  0.089736802707
CG324  HPER  1  0.189271432669  0.089736802707
CG324  OPER  1  0.318427692534  0.188901923946
CG324   LIT  1  0.284864865125  0.020196198771
CG324   RUB  1  0.338541512893  0.162045623205
CG324   BAR  1  0.337650614175  0.162045623205
CG324   CAD  1  0.290165712498  0.144938011577
CG324  ON2B  1  0.326959829558  0.163176000000
CG324    SP  1  0.365268474438  0.280671252536
CG324   HNP  1  0.290272620344  0.072469005789
CG324  HNE1  1  0.280633096214  0.073666921749
CG324  HNE2  1  0.281523994932  0.067464972838
CG324  CN3D  1  0.338541512893  0.125520000000
CG324  CNE1  1  0.355468588538  0.109105371453
CG324  CNE2  1  0.354577689820  0.105847757841
CG324   CNA  1  0.346773417049  0.110698234855
CG324  CNA2  1  0.338541512893  0.110698234855
CG324   CNG  1  0.347450500075  0.138767581228
CG324  NN1C  1  0.334087019303  0.187114168357
CG324  NN2C  1  0.334087019303  0.187114168357
CG324  NN3I  1  0.334087019303  0.187114168357
CG324   NNG  1  0.334087019303  0.187114168357
CG324   FNA  1  0.320723538531  0.144938011577
CG324  ON2M  1  0.316269044940  0.132309697301
CG324   CN6  1  0.338541512893  0.041840000000
CG324  CN7E  1  0.338541512893  0.041840000000
CG324  CT2P  1  0.338541512893  0.041840000000
CG324  CTD1  1  0.338541512893  0.041840000000
CG324  CPD1  1  0.338541512893  0.041840000000
CG324  CC1A  1  0.355468588538  0.109105371453
CG324  CC1B  1  0.355468588538  0.109105371453
CG324   CC2  1  0.354577689820  0.105847757841
CG324   NS1  1  0.334087019303  0.187114168357
CG324   NS2  1  0.334087019303  0.187114168357
CG324   NHL  1  0.307360057758  0.187114168357
CG324  CTO1  1  0.338541512893  0.041840000000
CG324  CEL3  1  0.355468588538  0.109105371453
CG324  CTO2  1  0.338541512893  0.041840000000
CG324  HN3B  1  0.249451641079  0.089736802707
CG324  CN1A  1  0.347450500075  0.110698234855
CG324  CN3A  1  0.329632525712  0.177512086349
CG324  CN3B  1  0.329632525712  0.177512086349
CG324  CN3C  1  0.329632525712  0.177512086349
CG331     C  1  0.347450500075  0.138767581228
CG331    CA  1  0.346773417049  0.110698234855
CG331    CC  1  0.347450500075  0.110698234855
CG331    CD  1  0.347450500075  0.110698234855
CG331   CE1  1  0.355468588538  0.109105371453
CG331   CE2  1  0.354577689820  0.105847757841
CG331   CP1  1  0.338541512893  0.041840000000
CG331   CP2  1  0.338541512893  0.041840000000
CG331   CP3  1  0.338541512893  0.041840000000
CG331  CPH1  1  0.329632525712  0.093557084179
CG331  CPH2  1  0.329632525712  0.093557084179
CG331    CS  1  0.365268474438  0.138767581228
CG331   CPT  1  0.334977918021  0.131646486622
CG331    CY  1  0.346559601357  0.113045454929
CG331   CAI  1  0.346559601357  0.113045454929
CG331    CT  1  0.338541512893  0.041840000000
CG331   CT1  1  0.338541512893  0.041840000000
CG331   CT2  1  0.338541512893  0.041840000000
CG331  CT2A  1  0.338541512893  0.041840000000
CG331   CT3  1  0.338541512893  0.041840000000
CG331    C3  1  0.371950214824  0.059170695450
CG331     H  1  0.189271432669  0.089736802707
CG331    HA  1  0.286869387241  0.062058748940
CG331   HB1  1  0.286869387241  0.062058748940
CG331   HB2  1  0.288651184677  0.070011711020
CG331   HE1  1  0.280633096214  0.073666921749
CG331   HE2  1  0.281523994932  0.067464972838
CG331    HC  1  0.189271432669  0.089736802707
CG331    HP  1  0.290272620344  0.072469005789
CG331   HR1  1  0.249451641079  0.089736802707
CG331   HR2  1  0.231633666716  0.089736802707
CG331   HR3  1  0.300054688270  0.036952087465
CG331    HS  1  0.209361198763  0.132309697301
CG331   HA1  1  0.288651184677  0.088756043175
CG331   HA2  1  0.288651184677  0.077149148019
CG331   HA3  1  0.288651184677  0.064818249282
CG331     N  1  0.334087019303  0.004184000000
CG331   NC2  1  0.334087019303  0.187114168357
CG331   NH1  1  0.307360057758  0.187114168357
CG331   NH2  1  0.334087019303  0.187114168357
CG331   NH3  1  0.334087019303  0.187114168357
CG331    NP  1  0.334087019303  0.187114168357
CG331   NR1  1  0.334087019303  0.187114168357
CG331   NR2  1  0.334087019303  0.187114168357
CG331   NR3  1  0.334087019303  0.187114168357
CG331    NY  1  0.334087019303  0.187114168357
CG331     O  1  0.293996576986  0.144938011577
CG331    OB  1  0.293996576986  0.144938011577
CG331    OC  1  0.320723538531  0.144938011577
CG331   OH1  1  0.326959829558  0.163176000000
CG331    OS  1  0.326959829558  0.163176000000
CG331     S  1  0.347450500075  0.280671252536
CG331    SM  1  0.345223253279  0.257919081884
CG331    SS  1  0.365268474438  0.286840588481
CG331  HGA1  1  0.288651184677  0.088756043175
CG331  HGA2  1  0.288651184677  0.078275472531
CG331  HGA3  1  0.288651184677  0.064818249282
CG331  HGA4  1  0.280633096214  0.073666921749
CG331  HGA5  1  0.281523994932  0.067464972838
CG331  HGA6  1  0.286869387241  0.070011711020
CG331  HGA7  1  0.285087589805  0.072469005789
CG331 HGAAM0  1  0.283305792369  0.070011711020
CG331 HGAAM1  1  0.283305792369  0.070011711020
CG331 HGAAM2  1  0.281523994932  0.083680000000
CG331  HGP1  1  0.189271432669  0.089736802707
CG331  HGP2  1  0.189271432669  0.089736802707
CG331  HGP3  1  0.209361198763  0.132309697301
CG331  HGP4  1  0.189271432669  0.089736802707
CG331  HGP5  1  0.231633666716  0.089736802707
CG331 HGPAM1  1  0.247224394284  0.039692909190
CG331 HGPAM2  1  0.247224394284  0.041840000000
CG331 HGPAM3  1  0.246778944925  0.045833423612
CG331 HGR51  1  0.290272620344  0.072469005789
CG331 HGR52  1  0.249451641079  0.089736802707
CG331 HGR53  1  0.231633666716  0.089736802707
CG331 HGR61  1  0.290272620344  0.072469005789
CG331 HGR62  1  0.267269615442  0.089736802707
CG331 HGR63  1  0.249451641079  0.089736802707
CG331 HGR71  1  0.290272620344  0.072469005789
CG331 HGTIP3  1  0.189271432669  0.089736802707
CG331 CG1T1  1  0.333196120584  0.170981810495
CG331 CG1T2  1  0.346782326036  0.134409982486
CG331 CG1N1  1  0.335868816739  0.177512086349
CG331 CG2D1  1  0.355468588538  0.109105371453
CG331 CG2D2  1  0.354577689820  0.105847757841
CG331 CG2D1O  1  0.355468588538  0.109105371453
CG331 CG2D2O  1  0.355468588538  0.109105371453
CG331 CG2DC1  1  0.355468588538  0.109105371453
CG331 CG2DC2  1  0.355468588538  0.109105371453
CG331 CG2DC3  1  0.354577689820  0.105847757841
CG331 CG2N1  1  0.347450500075  0.138767581228
CG331 CG2N2  1  0.347450500075  0.138767581228
CG331 CG2O1  1  0.347450500075  0.138767581228
CG331 CG2O2  1  0.320723538531  0.130979917850
CG331 CG2O3  1  0.347450500075  0.110698234855
CG331 CG2O4  1  0.329632525712  0.102486650838
CG331 CG2O5  1  0.347450500075  0.125520000000
CG331 CG2O6  1  0.347450500075  0.110698234855
CG331 CG2O7  1  0.308518226092  0.100764063435
CG331 CG2R51  1  0.356359487256  0.093557084179
CG331 CG2R52  1  0.365268474438  0.059170695450
CG331 CG2R53  1  0.365268474438  0.059170695450
CG331 CG2R57  1  0.356359487256  0.093557084179
CG331 CG25C1  1  0.355468588538  0.109105371453
CG331 CG25C2  1  0.355468588538  0.109105371453
CG331 CG251O  1  0.355468588538  0.109105371453
CG331 CG252O  1  0.355468588538  0.109105371453
CG331 CG2R61  1  0.346773417049  0.110698234855
CG331 CG2R62  1  0.338541512893  0.125520000000
CG331 CG2R63  1  0.338541512893  0.132309697301
CG331 CG2R64  1  0.356359487256  0.083680000000
CG331 CG2R66  1  0.338541512893  0.110698234855
CG331 CG2R67  1  0.346773417049  0.110698234855
CG331 CG2RC0  1  0.334977918021  0.131646486622
CG331 CG2R71  1  0.346987232741  0.108300154755
CG331 CG2RC7  1  0.334977918021  0.131646486622
CG331 CG301  1  0.338541512893  0.041840000000
CG331 CG302  1  0.374177461619  0.059170695450
CG331 CG311  1  0.338541512893  0.041840000000
CG331 CG312  1  0.351904993665  0.085746484010
CG331 CG314  1  0.338541512893  0.041840000000
CG331 CG321  1  0.338541512893  0.041840000000
CG331 CG322  1  0.338541512893  0.102486650838
CG331 CG323  1  0.365268474438  0.138767581228
CG331 CG324  1  0.338541512893  0.041840000000
CG331 CG331  1  0.338541512893  0.041840000000
CG331 CG334  1  0.338541512893  0.041840000000
CG331 CG3C50  1  0.338541512893  0.041840000000
CG331 CG3C51  1  0.338541512893  0.041840000000
CG331 CG3C52  1  0.338541512893  0.041840000000
CG331 CG3C53  1  0.338541512893  0.041840000000
CG331 CG3C54  1  0.338541512893  0.041840000000
CG331 CG3C31  1  0.338541512893  0.041840000000
CG331 CG3C41  1  0.338541512893  0.041840000000
CG331 CG3RC1  1  0.338541512893  0.041840000000
CG331 CG3AM0  1  0.344777803920  0.110698234855
CG331 CG3AM1  1  0.345668702638  0.116852760686
CG331 CG3AM2  1  0.346559601357  0.118341390899
CG331 NG1T1  1  0.328741626994  0.177512086349
CG331 NG2D1  1  0.334087019303  0.187114168357
CG331 NG2S0  1  0.334087019303  0.004184000000
CG331 NG2S1  1  0.307360057758  0.187114168357
CG331 NG2S2  1  0.334087019303  0.187114168357
CG331 NG2S3  1  0.334087019303  0.187114168357
CG331 NG2O1  1  0.334087019303  0.187114168357
CG331 NG2P1  1  0.334087019303  0.187114168357
CG331 NG2R43  1  0.334087019303  0.187114168357
CG331 NG2R50  1  0.334087019303  0.187114168357
CG331 NG2R51  1  0.334087019303  0.187114168357
CG331 NG2R52  1  0.334087019303  0.187114168357
CG331 NG2R53  1  0.334087019303  0.187114168357
CG331 NG2R57  1  0.334087019303  0.187114168357
CG331 NG2R60  1  0.337650614175  0.102486650838
CG331 NG2R61  1  0.334087019303  0.187114168357
CG331 NG2R62  1  0.352795892384  0.093557084179
CG331 NG2R67  1  0.334087019303  0.187114168357
CG331 NG2RC0  1  0.334087019303  0.187114168357
CG331 NG301  1  0.347450500075  0.078275472531
CG331 NG311  1  0.347450500075  0.088756043175
CG331 NG321  1  0.346559601357  0.102486650838
CG331 NG331  1  0.345668702638  0.110698234855
CG331 NG3C51  1  0.334087019303  0.187114168357
CG331 NG3N1  1  0.351904993665  0.102486650838
CG331 NG3P0  1  0.334087019303  0.187114168357
CG331 NG3P1  1  0.334087019303  0.187114168357
CG331 NG3P2  1  0.334087019303  0.187114168357
CG331 NG3P3  1  0.334087019303  0.187114168357
CG331 OG2D1  1  0.293996576986  0.144938011577
CG331 OG2D2  1  0.320723538531  0.144938011577
CG331 OG2D3  1  0.293996576986  0.144938011577
CG331 OG2D4  1  0.320723538531  0.144938011577
CG331 OG2D5  1  0.320010819556  0.169954883425
CG331 OG2N1  1  0.320723538531  0.144938011577
CG331 OG2P1  1  0.320723538531  0.144938011577
CG331 OG2R50  1  0.320723538531  0.144938011577
CG331 OG3R60  1  0.316269044940  0.132309697301
CG331 OG301  1  0.316269044940  0.132309697301
CG331 OG302  1  0.316269044940  0.132309697301
CG331 OG303  1  0.316269044940  0.132309697301
CG331 OG304  1  0.316269044940  0.132309697301
CG331 OG311  1  0.326514380198  0.183381431383
CG331 OG312  1  0.325178032121  0.144938011577
CG331 OG3C31  1  0.316269044940  0.132309697301
CG331 OG3C51  1  0.316269044940  0.132309697301
CG331 OG3C61  1  0.316269044940  0.132309697301
CG331 OGTIP3  1  0.326799467788  0.163176000000
CG331 SG2D1  1  0.351904993665  0.314496560236
CG331 SG2R50  1  0.347450500075  0.280671252536
CG331 SG311  1  0.347450500075  0.280671252536
CG331 SG301  1  0.345223253279  0.257919081884
CG331 SG302  1  0.365268474438  0.286840588481
CG331 SG3O1  1  0.356359487256  0.286840588481
CG331 SG3O2  1  0.347450500075  0.247528778125
CG331 SG3O3  1  0.347450500075  0.247528778125
CG331  FGA1  1  0.314487247504  0.153729976257
CG331  FGA2  1  0.314487247504  0.135577095411
CG331  FGA3  1  0.311814551349  0.130309939452
CG331  FGP1  1  0.311814551349  0.130309939452
CG331  FGR1  1  0.320723538531  0.144938011577
CG331 CLGA1  1  0.339432411611  0.245040988571
CG331 CLGA3  1  0.339432411611  0.232955260941
CG331 BRGA1  1  0.344777803920  0.289876023155
CG331 BRGA2  1  0.351904993665  0.304599797767
CG331 BRGA3  1  0.347450500075  0.307459952514
CG331   SOD  1  0.294954293108  0.090610410351
CG331   CLA  1  0.371504765465  0.162045623205
CG331   PG0  1  0.360813980847  0.320014464673
CG331   PG1  1  0.360813980847  0.320014464673
CG331   PG2  1  0.360813980847  0.320014464673
CG331  ALG1  1  0.347450500075  0.337324864189
CG331   LPH  1  0.169270756447  0.000000000000
CG331 CLGR1  1  0.334977918021  0.200657590935
CG331 BRGR1  1  0.345668702638  0.236682781799
CG331  IGR1  1  0.368832069310  0.301712530731
CG331 SG2P1  1  0.355798221064  0.332305491450
CG331 OG2S1  1  0.318906105146  0.157831660601
CG331 SG2P2  1  0.352314807076  0.329421919951
CG331 SEGD1  1  0.363041227642  0.330244580395
CG331 BG201  1  0.396449929572  0.081561175077
CG331 CC301  1  0.338541512893  0.041840000000
CG331 CC3062  1  0.338541512893  0.041840000000
CG331 CC311  1  0.338541512893  0.041840000000
CG331 CC3161  1  0.338541512893  0.041840000000
CG331 CC3162  1  0.338541512893  0.041840000000
CG331 CC3163  1  0.338541512893  0.041840000000
CG331 CC321  1  0.338541512893  0.041840000000
CG331 CC3261  1  0.338541512893  0.041840000000
CG331 CC3263  1  0.338541512893  0.041840000000
CG331 CC331  1  0.338541512893  0.041840000000
CG331 CC2O1  1  0.347450500075  0.138767581228
CG331 CC2O2  1  0.347450500075  0.110698234855
CG331 CC2O3  1  0.347450500075  0.125520000000
CG331 CC2O4  1  0.329632525712  0.102486650838
CG331 CC2O5  1  0.320723538531  0.130979917850
CG331 OC2D1  1  0.293996576986  0.144938011577
CG331 OC2D2  1  0.320723538531  0.144938011577
CG331 OC2D3  1  0.293996576986  0.144938011577
CG331 OC2D4  1  0.293996576986  0.144938011577
CG331 OC3C61  1  0.316269044940  0.132309697301
CG331 OC311  1  0.326514380198  0.183381431383
CG331 NC2D1  1  0.307360057758  0.187114168357
CG331  HCP1  1  0.189271432669  0.089736802707
CG331  HCA1  1  0.288651184677  0.088756043175
CG331  HCA2  1  0.288651184677  0.078275472531
CG331  HCA3  1  0.288651184677  0.064818249282
CG331 CC312  1  0.338541512893  0.041840000000
CG331 CC322  1  0.338541512893  0.041840000000
CG331  HCR1  1  0.240542653898  0.089736802707
CG331 HCA3M  1  0.288651184677  0.064818249282
CG331 CC321C  1  0.338541512893  0.041840000000
CG331 CC321D  1  0.338541512893  0.041840000000
CG331 CC311C  1  0.338541512893  0.041840000000
CG331 CC311D  1  0.338541512893  0.041840000000
CG331 OC301  1  0.316269044940  0.132309697301
CG331 OC302  1  0.316269044940  0.132309697301
CG331 HCP1M  1  0.189271432669  0.089736802707
CG331 OC311M  1  0.326514380198  0.183381431383
CG331 OC3C5M  1  0.316269044940  0.132309697301
CG331 CC322C  1  0.338541512893  0.041840000000
CG331 HCA2C2  1  0.285087589805  0.078275472531
CG331 CC312C  1  0.338541512893  0.041840000000
CG331 HCA1C2  1  0.288651184677  0.088756043175
CG331 OC3C51  1  0.316269044940  0.132309697301
CG331 CC3152  1  0.338541512893  0.041840000000
CG331 CC3051  1  0.338541512893  0.041840000000
CG331 CC3251  1  0.338541512893  0.041840000000
CG331 CC3151  1  0.338541512893  0.041840000000
CG331 CC3153  1  0.338541512893  0.041840000000
CG331 OC2DP  1  0.320723538531  0.144938011577
CG331 OC312  1  0.326959829558  0.163176000000
CG331 OC30P  1  0.326959829558  0.163176000000
CG331    PC  1  0.360813980847  0.320014464673
CG331    SC  1  0.356359487256  0.286840588481
CG331 CC312D  1  0.338541512893  0.041840000000
CG331 OC303  1  0.316269044940  0.132309697301
CG331 NC311  1  0.347450500075  0.088756043175
CG331   HN1  1  0.189271432669  0.089736802707
CG331   HN2  1  0.189271432669  0.089736802707
CG331   HN3  1  0.267269615442  0.089736802707
CG331   HN4  1  0.189271432669  0.089736802707
CG331   HN5  1  0.189271432669  0.089736802707
CG331   HN6  1  0.286869387241  0.062058748940
CG331   HN7  1  0.286869387241  0.062058748940
CG331   HN8  1  0.288651184677  0.070011711020
CG331   HN9  1  0.288651184677  0.064818249282
CG331   NN1  1  0.334087019303  0.187114168357
CG331   NN2  1  0.334087019303  0.187114168357
CG331  NN2B  1  0.334087019303  0.187114168357
CG331  NN2G  1  0.334087019303  0.187114168357
CG331  NN2U  1  0.334087019303  0.187114168357
CG331   NN3  1  0.334087019303  0.187114168357
CG331  NN3A  1  0.334087019303  0.187114168357
CG331  NN3G  1  0.334087019303  0.187114168357
CG331   NN4  1  0.334087019303  0.187114168357
CG331   NN6  1  0.334087019303  0.187114168357
CG331   ON1  1  0.320723538531  0.144938011577
CG331  ON1C  1  0.320723538531  0.144938011577
CG331   ON2  1  0.326959829558  0.163176000000
CG331   ON3  1  0.320723538531  0.144938011577
CG331   ON4  1  0.326959829558  0.163176000000
CG331   ON5  1  0.326959829558  0.163176000000
CG331   ON6  1  0.326959829558  0.163176000000
CG331  ON6B  1  0.326959829558  0.163176000000
CG331   CN1  1  0.338541512893  0.132309697301
CG331  CN1T  1  0.338541512893  0.132309697301
CG331   CN2  1  0.338541512893  0.132309697301
CG331   CN3  1  0.338541512893  0.125520000000
CG331  CN3T  1  0.338541512893  0.125520000000
CG331   CN4  1  0.338541512893  0.114583559030
CG331   CN5  1  0.338541512893  0.114583559030
CG331  CN5G  1  0.338541512893  0.114583559030
CG331   CN7  1  0.338541512893  0.041840000000
CG331  CN7B  1  0.338541512893  0.041840000000
CG331   CN8  1  0.338541512893  0.041840000000
CG331  CN8B  1  0.338541512893  0.041840000000
CG331   CN9  1  0.338541512893  0.041840000000
CG331     P  1  0.360813980847  0.320014464673
CG331    P2  1  0.360813980847  0.320014464673
CG331    P3  1  0.360813980847  0.320014464673
CG331    P4  1  0.360813980847  0.320014464673
CG331   HOL  1  0.189271432669  0.089736802707
CG331  HAL1  1  0.286869387241  0.062058748940
CG331  HAL2  1  0.288651184677  0.070011711020
CG331  HAL3  1  0.288651184677  0.064818249282
CG331   HBL  1  0.286869387241  0.062058748940
CG331   HCL  1  0.189271432669  0.089736802707
CG331    HL  1  0.231633666716  0.089736802707
CG331  HEL1  1  0.280633096214  0.073666921749
CG331  HEL2  1  0.281523994932  0.067464972838
CG331    CL  1  0.347450500075  0.110698234855
CG331   CCL  1  0.347450500075  0.110698234855
CG331  CTL1  1  0.338541512893  0.041840000000
CG331  CTL2  1  0.338541512893  0.041840000000
CG331  CTL3  1  0.338541512893  0.041840000000
CG331  CTL5  1  0.338541512893  0.041840000000
CG331  CEL1  1  0.355468588538  0.109105371453
CG331  CEL2  1  0.354577689820  0.105847757841
CG331  CRL1  1  0.338541512893  0.041840000000
CG331  CRL2  1  0.338541512893  0.041840000000
CG331   OBL  1  0.293996576986  0.144938011577
CG331   OCL  1  0.320723538531  0.144938011577
CG331   O2L  1  0.320723538531  0.144938011577
CG331   OHL  1  0.326959829558  0.163176000000
CG331   OSL  1  0.316269044940  0.132309697301
CG331  OSLP  1  0.316269044940  0.132309697301
CG331  NH3L  1  0.334087019303  0.187114168357
CG331   NTL  1  0.334087019303  0.187114168357
CG331    SL  1  0.356359487256  0.286840588481
CG331    PL  1  0.360813980847  0.320014464673
CG331 HCA1A  1  0.288651184677  0.088756043175
CG331 HCA2A  1  0.288651184677  0.078275472531
CG331 HCA3A  1  0.288651184677  0.064818249282
CG331 CC30A  1  0.338541512893  0.041840000000
CG331 CC31A  1  0.338541512893  0.041840000000
CG331 CC32A  1  0.338541512893  0.041840000000
CG331 CC33A  1  0.338541512893  0.041840000000
CG331 CC326A  1  0.338541512893  0.041840000000
CG331 HCA25A  1  0.285087589805  0.078275472531
CG331 CC325A  1  0.338541512893  0.041840000000
CG331 CC325B  1  0.338541512893  0.041840000000
CG331 OC305A  1  0.316269044940  0.132309697301
CG331 OC30A  1  0.316269044940  0.132309697301
CG331  HSIO  1  0.189271432669  0.089736802707
CG331  HSIA  1  0.286869387241  0.062058748940
CG331   HAL  1  0.286869387241  0.062058748940
CG331    AL  1  0.365268474438  0.337324864189
CG331    SI  1  0.365268474438  0.324091246411
CG331  SIH3  1  0.365268474438  0.324091246411
CG331  OSIH  1  0.326959829558  0.163176000000
CG331  OSIE  1  0.326959829558  0.163176000000
CG331  OSIA  1  0.326959829558  0.163176000000
CG331   OAL  1  0.326959829558  0.163176000000
CG331    HT  1  0.189271432669  0.089736802707
CG331    OT  1  0.326799467788  0.163176000000
CG331   DUM  1  0.169270756447  0.000000000000
CG331    CM  1  0.356359487256  0.138767581228
CG331   CPA  1  0.329632525712  0.125520000000
CG331   CPB  1  0.329632525712  0.125520000000
CG331   CPM  1  0.329632525712  0.125520000000
CG331   CST  1  0.308518226092  0.100764063435
CG331  CT1X  1  0.338541512893  0.041840000000
CG331  CT2X  1  0.338541512893  0.041840000000
CG331  CT3X  1  0.338541512893  0.041840000000
CG331    HB  1  0.286869387241  0.062058748940
CG331   NPH  1  0.334087019303  0.187114168357
CG331    OM  1  0.320723538531  0.144938011577
CG331   OST  1  0.320010819556  0.169954883425
CG331   POT  1  0.326403017859  0.123410269913
CG331   CAL  1  0.291056611216  0.144938011577
CG331    MG  1  0.274842254546  0.051243325419
CG331   CES  1  0.356359487256  0.182376331798
CG331    ZN  1  0.266378716724  0.209200000000
CG331    FE  1  0.227179173126  0.000000000000
CG331    HE  1  0.301123766731  0.061020452073
CG331    NE  1  0.305578260322  0.122698965603
CG331  CLAL  1  0.339272049842  0.072469005789
CG331    AG  1  0.300901042052  0.893457908130
CG331    AU  1  0.300722862308  0.962320000000
CG331    CU  1  0.285800308779  0.908997471504
CG331    NI  1  0.282949432881  0.994525446633
CG331    PB  1  0.328073452955  0.716185437439
CG331    PD  1  0.294842930769  1.037598257516
CG331    PT  1  0.296001099102  1.168527606863
CG331   CAP  1  0.346773417049  0.110698234855
CG331    FA  1  0.320723538531  0.144938011577
CG331    CN  1  0.325178032121  0.187114168357
CG331    NC  1  0.334087019303  0.324091246411
CG331   OCA  1  0.293996576986  0.144938011577
CG331   COA  1  0.347450500075  0.138767581228
CG331   CF1  1  0.338541512893  0.102486650838
CG331   CF2  1  0.351904993665  0.085746484010
CG331   CF3  1  0.374177461619  0.059170695450
CG331   HF1  1  0.286869387241  0.070011711020
CG331   HF2  1  0.285087589805  0.072469005789
CG331    F1  1  0.314487247504  0.153729976257
CG331    F2  1  0.314487247504  0.135577095411
CG331    F3  1  0.311814551349  0.130309939452
CG331    OX  1  0.320723538531  0.144938011577
CG331    HX  1  0.189271432669  0.089736802707
CG331  HPER  1  0.189271432669  0.089736802707
CG331  OPER  1  0.318427692534  0.188901923946
CG331   LIT  1  0.284864865125  0.020196198771
CG331   RUB  1  0.338541512893  0.162045623205
CG331   BAR  1  0.337650614175  0.162045623205
CG331   CAD  1  0.290165712498  0.144938011577
CG331  ON2B  1  0.326959829558  0.163176000000
CG331    SP  1  0.365268474438  0.280671252536
CG331   HNP  1  0.290272620344  0.072469005789
CG331  HNE1  1  0.280633096214  0.073666921749
CG331  HNE2  1  0.281523994932  0.067464972838
CG331  CN3D  1  0.338541512893  0.125520000000
CG331  CNE1  1  0.355468588538  0.109105371453
CG331  CNE2  1  0.354577689820  0.105847757841
CG331   CNA  1  0.346773417049  0.110698234855
CG331  CNA2  1  0.338541512893  0.110698234855
CG331   CNG  1  0.347450500075  0.138767581228
CG331  NN1C  1  0.334087019303  0.187114168357
CG331  NN2C  1  0.334087019303  0.187114168357
CG331  NN3I  1  0.334087019303  0.187114168357
CG331   NNG  1  0.334087019303  0.187114168357
CG331   FNA  1  0.320723538531  0.144938011577
CG331  ON2M  1  0.316269044940  0.132309697301
CG331   CN6  1  0.338541512893  0.041840000000
CG331  CN7E  1  0.338541512893  0.041840000000
CG331  CT2P  1  0.338541512893  0.041840000000
CG331  CTD1  1  0.338541512893  0.041840000000
CG331  CPD1  1  0.338541512893  0.041840000000
CG331  CC1A  1  0.355468588538  0.109105371453
CG331  CC1B  1  0.355468588538  0.109105371453
CG331   CC2  1  0.354577689820  0.105847757841
CG331   NS1  1  0.334087019303  0.187114168357
CG331   NS2  1  0.334087019303  0.187114168357
CG331   NHL  1  0.307360057758  0.187114168357
CG331  CTO1  1  0.338541512893  0.041840000000
CG331  CEL3  1  0.355468588538  0.109105371453
CG331  CTO2  1  0.338541512893  0.041840000000
CG331  HN3B  1  0.249451641079  0.089736802707
CG331  CN1A  1  0.347450500075  0.110698234855
CG331  CN3A  1  0.329632525712  0.177512086349
CG331  CN3B  1  0.329632525712  0.177512086349
CG331  CN3C  1  0.329632525712  0.177512086349
CG334     C  1  0.347450500075  0.138767581228
CG334    CA  1  0.346773417049  0.110698234855
CG334    CC  1  0.347450500075  0.110698234855
CG334    CD  1  0.347450500075  0.110698234855
CG334   CE1  1  0.355468588538  0.109105371453
CG334   CE2  1  0.354577689820  0.105847757841
CG334   CP1  1  0.338541512893  0.041840000000
CG334   CP2  1  0.338541512893  0.041840000000
CG334   CP3  1  0.338541512893  0.041840000000
CG334  CPH1  1  0.329632525712  0.093557084179
CG334  CPH2  1  0.329632525712  0.093557084179
CG334    CS  1  0.365268474438  0.138767581228
CG334   CPT  1  0.334977918021  0.131646486622
CG334    CY  1  0.346559601357  0.113045454929
CG334   CAI  1  0.346559601357  0.113045454929
CG334    CT  1  0.338541512893  0.041840000000
CG334   CT1  1  0.338541512893  0.041840000000
CG334   CT2  1  0.338541512893  0.041840000000
CG334  CT2A  1  0.338541512893  0.041840000000
CG334   CT3  1  0.338541512893  0.041840000000
CG334    C3  1  0.371950214824  0.059170695450
CG334     H  1  0.189271432669  0.089736802707
CG334    HA  1  0.286869387241  0.062058748940
CG334   HB1  1  0.286869387241  0.062058748940
CG334   HB2  1  0.288651184677  0.070011711020
CG334   HE1  1  0.280633096214  0.073666921749
CG334   HE2  1  0.281523994932  0.067464972838
CG334    HC  1  0.189271432669  0.089736802707
CG334    HP  1  0.290272620344  0.072469005789
CG334   HR1  1  0.249451641079  0.089736802707
CG334   HR2  1  0.231633666716  0.089736802707
CG334   HR3  1  0.300054688270  0.036952087465
CG334    HS  1  0.209361198763  0.132309697301
CG334   HA1  1  0.288651184677  0.088756043175
CG334   HA2  1  0.288651184677  0.077149148019
CG334   HA3  1  0.288651184677  0.064818249282
CG334     N  1  0.334087019303  0.004184000000
CG334   NC2  1  0.334087019303  0.187114168357
CG334   NH1  1  0.307360057758  0.187114168357
CG334   NH2  1  0.334087019303  0.187114168357
CG334   NH3  1  0.334087019303  0.187114168357
CG334    NP  1  0.334087019303  0.187114168357
CG334   NR1  1  0.334087019303  0.187114168357
CG334   NR2  1  0.334087019303  0.187114168357
CG334   NR3  1  0.334087019303  0.187114168357
CG334    NY  1  0.334087019303  0.187114168357
CG334     O  1  0.293996576986  0.144938011577
CG334    OB  1  0.293996576986  0.144938011577
CG334    OC  1  0.320723538531  0.144938011577
CG334   OH1  1  0.326959829558  0.163176000000
CG334    OS  1  0.326959829558  0.163176000000
CG334     S  1  0.347450500075  0.280671252536
CG334    SM  1  0.345223253279  0.257919081884
CG334    SS  1  0.365268474438  0.286840588481
CG334  HGA1  1  0.288651184677  0.088756043175
CG334  HGA2  1  0.288651184677  0.078275472531
CG334  HGA3  1  0.288651184677  0.064818249282
CG334  HGA4  1  0.280633096214  0.073666921749
CG334  HGA5  1  0.281523994932  0.067464972838
CG334  HGA6  1  0.286869387241  0.070011711020
CG334  HGA7  1  0.285087589805  0.072469005789
CG334 HGAAM0  1  0.283305792369  0.070011711020
CG334 HGAAM1  1  0.283305792369  0.070011711020
CG334 HGAAM2  1  0.281523994932  0.083680000000
CG334  HGP1  1  0.189271432669  0.089736802707
CG334  HGP2  1  0.189271432669  0.089736802707
CG334  HGP3  1  0.209361198763  0.132309697301
CG334  HGP4  1  0.189271432669  0.089736802707
CG334  HGP5  1  0.231633666716  0.089736802707
CG334 HGPAM1  1  0.247224394284  0.039692909190
CG334 HGPAM2  1  0.247224394284  0.041840000000
CG334 HGPAM3  1  0.246778944925  0.045833423612
CG334 HGR51  1  0.290272620344  0.072469005789
CG334 HGR52  1  0.249451641079  0.089736802707
CG334 HGR53  1  0.231633666716  0.089736802707
CG334 HGR61  1  0.290272620344  0.072469005789
CG334 HGR62  1  0.267269615442  0.089736802707
CG334 HGR63  1  0.249451641079  0.089736802707
CG334 HGR71  1  0.290272620344  0.072469005789
CG334 HGTIP3  1  0.189271432669  0.089736802707
CG334 CG1T1  1  0.333196120584  0.170981810495
CG334 CG1T2  1  0.346782326036  0.134409982486
CG334 CG1N1  1  0.335868816739  0.177512086349
CG334 CG2D1  1  0.355468588538  0.109105371453
CG334 CG2D2  1  0.354577689820  0.105847757841
CG334 CG2D1O  1  0.355468588538  0.109105371453
CG334 CG2D2O  1  0.355468588538  0.109105371453
CG334 CG2DC1  1  0.355468588538  0.109105371453
CG334 CG2DC2  1  0.355468588538  0.109105371453
CG334 CG2DC3  1  0.354577689820  0.105847757841
CG334 CG2N1  1  0.347450500075  0.138767581228
CG334 CG2N2  1  0.347450500075  0.138767581228
CG334 CG2O1  1  0.347450500075  0.138767581228
CG334 CG2O2  1  0.320723538531  0.130979917850
CG334 CG2O3  1  0.347450500075  0.110698234855
CG334 CG2O4  1  0.329632525712  0.102486650838
CG334 CG2O5  1  0.347450500075  0.125520000000
CG334 CG2O6  1  0.347450500075  0.110698234855
CG334 CG2O7  1  0.308518226092  0.100764063435
CG334 CG2R51  1  0.356359487256  0.093557084179
CG334 CG2R52  1  0.365268474438  0.059170695450
CG334 CG2R53  1  0.365268474438  0.059170695450
CG334 CG2R57  1  0.356359487256  0.093557084179
CG334 CG25C1  1  0.355468588538  0.109105371453
CG334 CG25C2  1  0.355468588538  0.109105371453
CG334 CG251O  1  0.355468588538  0.109105371453
CG334 CG252O  1  0.355468588538  0.109105371453
CG334 CG2R61  1  0.346773417049  0.110698234855
CG334 CG2R62  1  0.338541512893  0.125520000000
CG334 CG2R63  1  0.338541512893  0.132309697301
CG334 CG2R64  1  0.356359487256  0.083680000000
CG334 CG2R66  1  0.338541512893  0.110698234855
CG334 CG2R67  1  0.346773417049  0.110698234855
CG334 CG2RC0  1  0.334977918021  0.131646486622
CG334 CG2R71  1  0.346987232741  0.108300154755
CG334 CG2RC7  1  0.334977918021  0.131646486622
CG334 CG301  1  0.338541512893  0.041840000000
CG334 CG302  1  0.374177461619  0.059170695450
CG334 CG311  1  0.338541512893  0.041840000000
CG334 CG312  1  0.351904993665  0.085746484010
CG334 CG314  1  0.338541512893  0.041840000000
CG334 CG321  1  0.338541512893  0.041840000000
CG334 CG322  1  0.338541512893  0.102486650838
CG334 CG323  1  0.365268474438  0.138767581228
CG334 CG324  1  0.338541512893  0.041840000000
CG334 CG331  1  0.338541512893  0.041840000000
CG334 CG334  1  0.338541512893  0.041840000000
CG334 CG3C50  1  0.338541512893  0.041840000000
CG334 CG3C51  1  0.338541512893  0.041840000000
CG334 CG3C52  1  0.338541512893  0.041840000000
CG334 CG3C53  1  0.338541512893  0.041840000000
CG334 CG3C54  1  0.338541512893  0.041840000000
CG334 CG3C31  1  0.338541512893  0.041840000000
CG334 CG3C41  1  0.338541512893  0.041840000000
CG334 CG3RC1  1  0.338541512893  0.041840000000
CG334 CG3AM0  1  0.344777803920  0.110698234855
CG334 CG3AM1  1  0.345668702638  0.116852760686
CG334 CG3AM2  1  0.346559601357  0.118341390899
CG334 NG1T1  1  0.328741626994  0.177512086349
CG334 NG2D1  1  0.334087019303  0.187114168357
CG334 NG2S0  1  0.334087019303  0.004184000000
CG334 NG2S1  1  0.307360057758  0.187114168357
CG334 NG2S2  1  0.334087019303  0.187114168357
CG334 NG2S3  1  0.334087019303  0.187114168357
CG334 NG2O1  1  0.334087019303  0.187114168357
CG334 NG2P1  1  0.334087019303  0.187114168357
CG334 NG2R43  1  0.334087019303  0.187114168357
CG334 NG2R50  1  0.334087019303  0.187114168357
CG334 NG2R51  1  0.334087019303  0.187114168357
CG334 NG2R52  1  0.334087019303  0.187114168357
CG334 NG2R53  1  0.334087019303  0.187114168357
CG334 NG2R57  1  0.334087019303  0.187114168357
CG334 NG2R60  1  0.337650614175  0.102486650838
CG334 NG2R61  1  0.334087019303  0.187114168357
CG334 NG2R62  1  0.352795892384  0.093557084179
CG334 NG2R67  1  0.334087019303  0.187114168357
CG334 NG2RC0  1  0.334087019303  0.187114168357
CG334 NG301  1  0.347450500075  0.078275472531
CG334 NG311  1  0.347450500075  0.088756043175
CG334 NG321  1  0.346559601357  0.102486650838
CG334 NG331  1  0.345668702638  0.110698234855
CG334 NG3C51  1  0.334087019303  0.187114168357
CG334 NG3N1  1  0.351904993665  0.102486650838
CG334 NG3P0  1  0.334087019303  0.187114168357
CG334 NG3P1  1  0.334087019303  0.187114168357
CG334 NG3P2  1  0.334087019303  0.187114168357
CG334 NG3P3  1  0.334087019303  0.187114168357
CG334 OG2D1  1  0.293996576986  0.144938011577
CG334 OG2D2  1  0.320723538531  0.144938011577
CG334 OG2D3  1  0.293996576986  0.144938011577
CG334 OG2D4  1  0.320723538531  0.144938011577
CG334 OG2D5  1  0.320010819556  0.169954883425
CG334 OG2N1  1  0.320723538531  0.144938011577
CG334 OG2P1  1  0.320723538531  0.144938011577
CG334 OG2R50  1  0.320723538531  0.144938011577
CG334 OG3R60  1  0.316269044940  0.132309697301
CG334 OG301  1  0.316269044940  0.132309697301
CG334 OG302  1  0.316269044940  0.132309697301
CG334 OG303  1  0.316269044940  0.132309697301
CG334 OG304  1  0.316269044940  0.132309697301
CG334 OG311  1  0.326514380198  0.183381431383
CG334 OG312  1  0.325178032121  0.144938011577
CG334 OG3C31  1  0.316269044940  0.132309697301
CG334 OG3C51  1  0.316269044940  0.132309697301
CG334 OG3C61  1  0.316269044940  0.132309697301
CG334 OGTIP3  1  0.326799467788  0.163176000000
CG334 SG2D1  1  0.351904993665  0.314496560236
CG334 SG2R50  1  0.347450500075  0.280671252536
CG334 SG311  1  0.347450500075  0.280671252536
CG334 SG301  1  0.345223253279  0.257919081884
CG334 SG302  1  0.365268474438  0.286840588481
CG334 SG3O1  1  0.356359487256  0.286840588481
CG334 SG3O2  1  0.347450500075  0.247528778125
CG334 SG3O3  1  0.347450500075  0.247528778125
CG334  FGA1  1  0.314487247504  0.153729976257
CG334  FGA2  1  0.314487247504  0.135577095411
CG334  FGA3  1  0.311814551349  0.130309939452
CG334  FGP1  1  0.311814551349  0.130309939452
CG334  FGR1  1  0.320723538531  0.144938011577
CG334 CLGA1  1  0.339432411611  0.245040988571
CG334 CLGA3  1  0.339432411611  0.232955260941
CG334 BRGA1  1  0.344777803920  0.289876023155
CG334 BRGA2  1  0.351904993665  0.304599797767
CG334 BRGA3  1  0.347450500075  0.307459952514
CG334   SOD  1  0.294954293108  0.090610410351
CG334   CLA  1  0.371504765465  0.162045623205
CG334   PG0  1  0.360813980847  0.320014464673
CG334   PG1  1  0.360813980847  0.320014464673
CG334   PG2  1  0.360813980847  0.320014464673
CG334  ALG1  1  0.347450500075  0.337324864189
CG334   LPH  1  0.169270756447  0.000000000000
CG334 CLGR1  1  0.334977918021  0.200657590935
CG334 BRGR1  1  0.345668702638  0.236682781799
CG334  IGR1  1  0.368832069310  0.301712530731
CG334 SG2P1  1  0.355798221064  0.332305491450
CG334 OG2S1  1  0.318906105146  0.157831660601
CG334 SG2P2  1  0.352314807076  0.329421919951
CG334 SEGD1  1  0.363041227642  0.330244580395
CG334 BG201  1  0.396449929572  0.081561175077
CG334 CC301  1  0.338541512893  0.041840000000
CG334 CC3062  1  0.338541512893  0.041840000000
CG334 CC311  1  0.338541512893  0.041840000000
CG334 CC3161  1  0.338541512893  0.041840000000
CG334 CC3162  1  0.338541512893  0.041840000000
CG334 CC3163  1  0.338541512893  0.041840000000
CG334 CC321  1  0.338541512893  0.041840000000
CG334 CC3261  1  0.338541512893  0.041840000000
CG334 CC3263  1  0.338541512893  0.041840000000
CG334 CC331  1  0.338541512893  0.041840000000
CG334 CC2O1  1  0.347450500075  0.138767581228
CG334 CC2O2  1  0.347450500075  0.110698234855
CG334 CC2O3  1  0.347450500075  0.125520000000
CG334 CC2O4  1  0.329632525712  0.102486650838
CG334 CC2O5  1  0.320723538531  0.130979917850
CG334 OC2D1  1  0.293996576986  0.144938011577
CG334 OC2D2  1  0.320723538531  0.144938011577
CG334 OC2D3  1  0.293996576986  0.144938011577
CG334 OC2D4  1  0.293996576986  0.144938011577
CG334 OC3C61  1  0.316269044940  0.132309697301
CG334 OC311  1  0.326514380198  0.183381431383
CG334 NC2D1  1  0.307360057758  0.187114168357
CG334  HCP1  1  0.189271432669  0.089736802707
CG334  HCA1  1  0.288651184677  0.088756043175
CG334  HCA2  1  0.288651184677  0.078275472531
CG334  HCA3  1  0.288651184677  0.064818249282
CG334 CC312  1  0.338541512893  0.041840000000
CG334 CC322  1  0.338541512893  0.041840000000
CG334  HCR1  1  0.240542653898  0.089736802707
CG334 HCA3M  1  0.288651184677  0.064818249282
CG334 CC321C  1  0.338541512893  0.041840000000
CG334 CC321D  1  0.338541512893  0.041840000000
CG334 CC311C  1  0.338541512893  0.041840000000
CG334 CC311D  1  0.338541512893  0.041840000000
CG334 OC301  1  0.316269044940  0.132309697301
CG334 OC302  1  0.316269044940  0.132309697301
CG334 HCP1M  1  0.189271432669  0.089736802707
CG334 OC311M  1  0.326514380198  0.183381431383
CG334 OC3C5M  1  0.316269044940  0.132309697301
CG334 CC322C  1  0.338541512893  0.041840000000
CG334 HCA2C2  1  0.285087589805  0.078275472531
CG334 CC312C  1  0.338541512893  0.041840000000
CG334 HCA1C2  1  0.288651184677  0.088756043175
CG334 OC3C51  1  0.316269044940  0.132309697301
CG334 CC3152  1  0.338541512893  0.041840000000
CG334 CC3051  1  0.338541512893  0.041840000000
CG334 CC3251  1  0.338541512893  0.041840000000
CG334 CC3151  1  0.338541512893  0.041840000000
CG334 CC3153  1  0.338541512893  0.041840000000
CG334 OC2DP  1  0.320723538531  0.144938011577
CG334 OC312  1  0.326959829558  0.163176000000
CG334 OC30P  1  0.326959829558  0.163176000000
CG334    PC  1  0.360813980847  0.320014464673
CG334    SC  1  0.356359487256  0.286840588481
CG334 CC312D  1  0.338541512893  0.041840000000
CG334 OC303  1  0.316269044940  0.132309697301
CG334 NC311  1  0.347450500075  0.088756043175
CG334   HN1  1  0.189271432669  0.089736802707
CG334   HN2  1  0.189271432669  0.089736802707
CG334   HN3  1  0.267269615442  0.089736802707
CG334   HN4  1  0.189271432669  0.089736802707
CG334   HN5  1  0.189271432669  0.089736802707
CG334   HN6  1  0.286869387241  0.062058748940
CG334   HN7  1  0.286869387241  0.062058748940
CG334   HN8  1  0.288651184677  0.070011711020
CG334   HN9  1  0.288651184677  0.064818249282
CG334   NN1  1  0.334087019303  0.187114168357
CG334   NN2  1  0.334087019303  0.187114168357
CG334  NN2B  1  0.334087019303  0.187114168357
CG334  NN2G  1  0.334087019303  0.187114168357
CG334  NN2U  1  0.334087019303  0.187114168357
CG334   NN3  1  0.334087019303  0.187114168357
CG334  NN3A  1  0.334087019303  0.187114168357
CG334  NN3G  1  0.334087019303  0.187114168357
CG334   NN4  1  0.334087019303  0.187114168357
CG334   NN6  1  0.334087019303  0.187114168357
CG334   ON1  1  0.320723538531  0.144938011577
CG334  ON1C  1  0.320723538531  0.144938011577
CG334   ON2  1  0.326959829558  0.163176000000
CG334   ON3  1  0.320723538531  0.144938011577
CG334   ON4  1  0.326959829558  0.163176000000
CG334   ON5  1  0.326959829558  0.163176000000
CG334   ON6  1  0.326959829558  0.163176000000
CG334  ON6B  1  0.326959829558  0.163176000000
CG334   CN1  1  0.338541512893  0.132309697301
CG334  CN1T  1  0.338541512893  0.132309697301
CG334   CN2  1  0.338541512893  0.132309697301
CG334   CN3  1  0.338541512893  0.125520000000
CG334  CN3T  1  0.338541512893  0.125520000000
CG334   CN4  1  0.338541512893  0.114583559030
CG334   CN5  1  0.338541512893  0.114583559030
CG334  CN5G  1  0.338541512893  0.114583559030
CG334   CN7  1  0.338541512893  0.041840000000
CG334  CN7B  1  0.338541512893  0.041840000000
CG334   CN8  1  0.338541512893  0.041840000000
CG334  CN8B  1  0.338541512893  0.041840000000
CG334   CN9  1  0.338541512893  0.041840000000
CG334     P  1  0.360813980847  0.320014464673
CG334    P2  1  0.360813980847  0.320014464673
CG334    P3  1  0.360813980847  0.320014464673
CG334    P4  1  0.360813980847  0.320014464673
CG334   HOL  1  0.189271432669  0.089736802707
CG334  HAL1  1  0.286869387241  0.062058748940
CG334  HAL2  1  0.288651184677  0.070011711020
CG334  HAL3  1  0.288651184677  0.064818249282
CG334   HBL  1  0.286869387241  0.062058748940
CG334   HCL  1  0.189271432669  0.089736802707
CG334    HL  1  0.231633666716  0.089736802707
CG334  HEL1  1  0.280633096214  0.073666921749
CG334  HEL2  1  0.281523994932  0.067464972838
CG334    CL  1  0.347450500075  0.110698234855
CG334   CCL  1  0.347450500075  0.110698234855
CG334  CTL1  1  0.338541512893  0.041840000000
CG334  CTL2  1  0.338541512893  0.041840000000
CG334  CTL3  1  0.338541512893  0.041840000000
CG334  CTL5  1  0.338541512893  0.041840000000
CG334  CEL1  1  0.355468588538  0.109105371453
CG334  CEL2  1  0.354577689820  0.105847757841
CG334  CRL1  1  0.338541512893  0.041840000000
CG334  CRL2  1  0.338541512893  0.041840000000
CG334   OBL  1  0.293996576986  0.144938011577
CG334   OCL  1  0.320723538531  0.144938011577
CG334   O2L  1  0.320723538531  0.144938011577
CG334   OHL  1  0.326959829558  0.163176000000
CG334   OSL  1  0.316269044940  0.132309697301
CG334  OSLP  1  0.316269044940  0.132309697301
CG334  NH3L  1  0.334087019303  0.187114168357
CG334   NTL  1  0.334087019303  0.187114168357
CG334    SL  1  0.356359487256  0.286840588481
CG334    PL  1  0.360813980847  0.320014464673
CG334 HCA1A  1  0.288651184677  0.088756043175
CG334 HCA2A  1  0.288651184677  0.078275472531
CG334 HCA3A  1  0.288651184677  0.064818249282
CG334 CC30A  1  0.338541512893  0.041840000000
CG334 CC31A  1  0.338541512893  0.041840000000
CG334 CC32A  1  0.338541512893  0.041840000000
CG334 CC33A  1  0.338541512893  0.041840000000
CG334 CC326A  1  0.338541512893  0.041840000000
CG334 HCA25A  1  0.285087589805  0.078275472531
CG334 CC325A  1  0.338541512893  0.041840000000
CG334 CC325B  1  0.338541512893  0.041840000000
CG334 OC305A  1  0.316269044940  0.132309697301
CG334 OC30A  1  0.316269044940  0.132309697301
CG334  HSIO  1  0.189271432669  0.089736802707
CG334  HSIA  1  0.286869387241  0.062058748940
CG334   HAL  1  0.286869387241  0.062058748940
CG334    AL  1  0.365268474438  0.337324864189
CG334    SI  1  0.365268474438  0.324091246411
CG334  SIH3  1  0.365268474438  0.324091246411
CG334  OSIH  1  0.326959829558  0.163176000000
CG334  OSIE  1  0.326959829558  0.163176000000
CG334  OSIA  1  0.326959829558  0.163176000000
CG334   OAL  1  0.326959829558  0.163176000000
CG334    HT  1  0.189271432669  0.089736802707
CG334    OT  1  0.326799467788  0.163176000000
CG334   DUM  1  0.169270756447  0.000000000000
CG334    CM  1  0.356359487256  0.138767581228
CG334   CPA  1  0.329632525712  0.125520000000
CG334   CPB  1  0.329632525712  0.125520000000
CG334   CPM  1  0.329632525712  0.125520000000
CG334   CST  1  0.308518226092  0.100764063435
CG334  CT1X  1  0.338541512893  0.041840000000
CG334  CT2X  1  0.338541512893  0.041840000000
CG334  CT3X  1  0.338541512893  0.041840000000
CG334    HB  1  0.286869387241  0.062058748940
CG334   NPH  1  0.334087019303  0.187114168357
CG334    OM  1  0.320723538531  0.144938011577
CG334   OST  1  0.320010819556  0.169954883425
CG334   POT  1  0.326403017859  0.123410269913
CG334   CAL  1  0.291056611216  0.144938011577
CG334    MG  1  0.274842254546  0.051243325419
CG334   CES  1  0.356359487256  0.182376331798
CG334    ZN  1  0.266378716724  0.209200000000
CG334    FE  1  0.227179173126  0.000000000000
CG334    HE  1  0.301123766731  0.061020452073
CG334    NE  1  0.305578260322  0.122698965603
CG334  CLAL  1  0.339272049842  0.072469005789
CG334    AG  1  0.300901042052  0.893457908130
CG334    AU  1  0.300722862308  0.962320000000
CG334    CU  1  0.285800308779  0.908997471504
CG334    NI  1  0.282949432881  0.994525446633
CG334    PB  1  0.328073452955  0.716185437439
CG334    PD  1  0.294842930769  1.037598257516
CG334    PT  1  0.296001099102  1.168527606863
CG334   CAP  1  0.346773417049  0.110698234855
CG334    FA  1  0.320723538531  0.144938011577
CG334    CN  1  0.325178032121  0.187114168357
CG334    NC  1  0.334087019303  0.324091246411
CG334   OCA  1  0.293996576986  0.144938011577
CG334   COA  1  0.347450500075  0.138767581228
CG334   CF1  1  0.338541512893  0.102486650838
CG334   CF2  1  0.351904993665  0.085746484010
CG334   CF3  1  0.374177461619  0.059170695450
CG334   HF1  1  0.286869387241  0.070011711020
CG334   HF2  1  0.285087589805  0.072469005789
CG334    F1  1  0.314487247504  0.153729976257
CG334    F2  1  0.314487247504  0.135577095411
CG334    F3  1  0.311814551349  0.130309939452
CG334    OX  1  0.320723538531  0.144938011577
CG334    HX  1  0.189271432669  0.089736802707
CG334  HPER  1  0.189271432669  0.089736802707
CG334  OPER  1  0.318427692534  0.188901923946
CG334   LIT  1  0.284864865125  0.020196198771
CG334   RUB  1  0.338541512893  0.162045623205
CG334   BAR  1  0.337650614175  0.162045623205
CG334   CAD  1  0.290165712498  0.144938011577
CG334  ON2B  1  0.326959829558  0.163176000000
CG334    SP  1  0.365268474438  0.280671252536
CG334   HNP  1  0.290272620344  0.072469005789
CG334  HNE1  1  0.280633096214  0.073666921749
CG334  HNE2  1  0.281523994932  0.067464972838
CG334  CN3D  1  0.338541512893  0.125520000000
CG334  CNE1  1  0.355468588538  0.109105371453
CG334  CNE2  1  0.354577689820  0.105847757841
CG334   CNA  1  0.346773417049  0.110698234855
CG334  CNA2  1  0.338541512893  0.110698234855
CG334   CNG  1  0.347450500075  0.138767581228
CG334  NN1C  1  0.334087019303  0.187114168357
CG334  NN2C  1  0.334087019303  0.187114168357
CG334  NN3I  1  0.334087019303  0.187114168357
CG334   NNG  1  0.334087019303  0.187114168357
CG334   FNA  1  0.320723538531  0.144938011577
CG334  ON2M  1  0.316269044940  0.132309697301
CG334   CN6  1  0.338541512893  0.041840000000
CG334  CN7E  1  0.338541512893  0.041840000000
CG334  CT2P  1  0.338541512893  0.041840000000
CG334  CTD1  1  0.338541512893  0.041840000000
CG334  CPD1  1  0.338541512893  0.041840000000
CG334  CC1A  1  0.355468588538  0.109105371453
CG334  CC1B  1  0.355468588538  0.109105371453
CG334   CC2  1  0.354577689820  0.105847757841
CG334   NS1  1  0.334087019303  0.187114168357
CG334   NS2  1  0.334087019303  0.187114168357
CG334   NHL  1  0.307360057758  0.187114168357
CG334  CTO1  1  0.338541512893  0.041840000000
CG334  CEL3  1  0.355468588538  0.109105371453
CG334  CTO2  1  0.338541512893  0.041840000000
CG334  HN3B  1  0.249451641079  0.089736802707
CG334  CN1A  1  0.347450500075  0.110698234855
CG334  CN3A  1  0.329632525712  0.177512086349
CG334  CN3B  1  0.329632525712  0.177512086349
CG334  CN3C  1  0.329632525712  0.177512086349
CG3C50     C  1  0.347450500075  0.138767581228
CG3C50    CA  1  0.346773417049  0.110698234855
CG3C50    CC  1  0.347450500075  0.110698234855
CG3C50    CD  1  0.347450500075  0.110698234855
CG3C50   CE1  1  0.355468588538  0.109105371453
CG3C50   CE2  1  0.354577689820  0.105847757841
CG3C50   CP1  1  0.338541512893  0.041840000000
CG3C50   CP2  1  0.338541512893  0.041840000000
CG3C50   CP3  1  0.338541512893  0.041840000000
CG3C50  CPH1  1  0.329632525712  0.093557084179
CG3C50  CPH2  1  0.329632525712  0.093557084179
CG3C50    CS  1  0.365268474438  0.138767581228
CG3C50   CPT  1  0.334977918021  0.131646486622
CG3C50    CY  1  0.346559601357  0.113045454929
CG3C50   CAI  1  0.346559601357  0.113045454929
CG3C50    CT  1  0.338541512893  0.041840000000
CG3C50   CT1  1  0.338541512893  0.041840000000
CG3C50   CT2  1  0.338541512893  0.041840000000
CG3C50  CT2A  1  0.338541512893  0.041840000000
CG3C50   CT3  1  0.338541512893  0.041840000000
CG3C50    C3  1  0.371950214824  0.059170695450
CG3C50     H  1  0.189271432669  0.089736802707
CG3C50    HA  1  0.286869387241  0.062058748940
CG3C50   HB1  1  0.286869387241  0.062058748940
CG3C50   HB2  1  0.288651184677  0.070011711020
CG3C50   HE1  1  0.280633096214  0.073666921749
CG3C50   HE2  1  0.281523994932  0.067464972838
CG3C50    HC  1  0.189271432669  0.089736802707
CG3C50    HP  1  0.290272620344  0.072469005789
CG3C50   HR1  1  0.249451641079  0.089736802707
CG3C50   HR2  1  0.231633666716  0.089736802707
CG3C50   HR3  1  0.300054688270  0.036952087465
CG3C50    HS  1  0.209361198763  0.132309697301
CG3C50   HA1  1  0.288651184677  0.088756043175
CG3C50   HA2  1  0.288651184677  0.077149148019
CG3C50   HA3  1  0.288651184677  0.064818249282
CG3C50     N  1  0.334087019303  0.004184000000
CG3C50   NC2  1  0.334087019303  0.187114168357
CG3C50   NH1  1  0.307360057758  0.187114168357
CG3C50   NH2  1  0.334087019303  0.187114168357
CG3C50   NH3  1  0.334087019303  0.187114168357
CG3C50    NP  1  0.334087019303  0.187114168357
CG3C50   NR1  1  0.334087019303  0.187114168357
CG3C50   NR2  1  0.334087019303  0.187114168357
CG3C50   NR3  1  0.334087019303  0.187114168357
CG3C50    NY  1  0.334087019303  0.187114168357
CG3C50     O  1  0.293996576986  0.144938011577
CG3C50    OB  1  0.293996576986  0.144938011577
CG3C50    OC  1  0.320723538531  0.144938011577
CG3C50   OH1  1  0.326959829558  0.163176000000
CG3C50    OS  1  0.326959829558  0.163176000000
CG3C50     S  1  0.347450500075  0.280671252536
CG3C50    SM  1  0.345223253279  0.257919081884
CG3C50    SS  1  0.365268474438  0.286840588481
CG3C50  HGA1  1  0.288651184677  0.088756043175
CG3C50  HGA2  1  0.288651184677  0.078275472531
CG3C50  HGA3  1  0.288651184677  0.064818249282
CG3C50  HGA4  1  0.280633096214  0.073666921749
CG3C50  HGA5  1  0.281523994932  0.067464972838
CG3C50  HGA6  1  0.286869387241  0.070011711020
CG3C50  HGA7  1  0.285087589805  0.072469005789
CG3C50 HGAAM0  1  0.283305792369  0.070011711020
CG3C50 HGAAM1  1  0.283305792369  0.070011711020
CG3C50 HGAAM2  1  0.281523994932  0.083680000000
CG3C50  HGP1  1  0.189271432669  0.089736802707
CG3C50  HGP2  1  0.189271432669  0.089736802707
CG3C50  HGP3  1  0.209361198763  0.132309697301
CG3C50  HGP4  1  0.189271432669  0.089736802707
CG3C50  HGP5  1  0.231633666716  0.089736802707
CG3C50 HGPAM1  1  0.247224394284  0.039692909190
CG3C50 HGPAM2  1  0.247224394284  0.041840000000
CG3C50 HGPAM3  1  0.246778944925  0.045833423612
CG3C50 HGR51  1  0.290272620344  0.072469005789
CG3C50 HGR52  1  0.249451641079  0.089736802707
CG3C50 HGR53  1  0.231633666716  0.089736802707
CG3C50 HGR61  1  0.290272620344  0.072469005789
CG3C50 HGR62  1  0.267269615442  0.089736802707
CG3C50 HGR63  1  0.249451641079  0.089736802707
CG3C50 HGR71  1  0.290272620344  0.072469005789
CG3C50 HGTIP3  1  0.189271432669  0.089736802707
CG3C50 CG1T1  1  0.333196120584  0.170981810495
CG3C50 CG1T2  1  0.346782326036  0.134409982486
CG3C50 CG1N1  1  0.335868816739  0.177512086349
CG3C50 CG2D1  1  0.355468588538  0.109105371453
CG3C50 CG2D2  1  0.354577689820  0.105847757841
CG3C50 CG2D1O  1  0.355468588538  0.109105371453
CG3C50 CG2D2O  1  0.355468588538  0.109105371453
CG3C50 CG2DC1  1  0.355468588538  0.109105371453
CG3C50 CG2DC2  1  0.355468588538  0.109105371453
CG3C50 CG2DC3  1  0.354577689820  0.105847757841
CG3C50 CG2N1  1  0.347450500075  0.138767581228
CG3C50 CG2N2  1  0.347450500075  0.138767581228
CG3C50 CG2O1  1  0.347450500075  0.138767581228
CG3C50 CG2O2  1  0.320723538531  0.130979917850
CG3C50 CG2O3  1  0.347450500075  0.110698234855
CG3C50 CG2O4  1  0.329632525712  0.102486650838
CG3C50 CG2O5  1  0.347450500075  0.125520000000
CG3C50 CG2O6  1  0.347450500075  0.110698234855
CG3C50 CG2O7  1  0.308518226092  0.100764063435
CG3C50 CG2R51  1  0.356359487256  0.093557084179
CG3C50 CG2R52  1  0.365268474438  0.059170695450
CG3C50 CG2R53  1  0.365268474438  0.059170695450
CG3C50 CG2R57  1  0.356359487256  0.093557084179
CG3C50 CG25C1  1  0.355468588538  0.109105371453
CG3C50 CG25C2  1  0.355468588538  0.109105371453
CG3C50 CG251O  1  0.355468588538  0.109105371453
CG3C50 CG252O  1  0.355468588538  0.109105371453
CG3C50 CG2R61  1  0.346773417049  0.110698234855
CG3C50 CG2R62  1  0.338541512893  0.125520000000
CG3C50 CG2R63  1  0.338541512893  0.132309697301
CG3C50 CG2R64  1  0.356359487256  0.083680000000
CG3C50 CG2R66  1  0.338541512893  0.110698234855
CG3C50 CG2R67  1  0.346773417049  0.110698234855
CG3C50 CG2RC0  1  0.334977918021  0.131646486622
CG3C50 CG2R71  1  0.346987232741  0.108300154755
CG3C50 CG2RC7  1  0.334977918021  0.131646486622
CG3C50 CG301  1  0.338541512893  0.041840000000
CG3C50 CG302  1  0.374177461619  0.059170695450
CG3C50 CG311  1  0.338541512893  0.041840000000
CG3C50 CG312  1  0.351904993665  0.085746484010
CG3C50 CG314  1  0.338541512893  0.041840000000
CG3C50 CG321  1  0.338541512893  0.041840000000
CG3C50 CG322  1  0.338541512893  0.102486650838
CG3C50 CG323  1  0.365268474438  0.138767581228
CG3C50 CG324  1  0.338541512893  0.041840000000
CG3C50 CG331  1  0.338541512893  0.041840000000
CG3C50 CG334  1  0.338541512893  0.041840000000
CG3C50 CG3C50  1  0.338541512893  0.041840000000
CG3C50 CG3C51  1  0.338541512893  0.041840000000
CG3C50 CG3C52  1  0.338541512893  0.041840000000
CG3C50 CG3C53  1  0.338541512893  0.041840000000
CG3C50 CG3C54  1  0.338541512893  0.041840000000
CG3C50 CG3C31  1  0.338541512893  0.041840000000
CG3C50 CG3C41  1  0.338541512893  0.041840000000
CG3C50 CG3RC1  1  0.338541512893  0.041840000000
CG3C50 CG3AM0  1  0.344777803920  0.110698234855
CG3C50 CG3AM1  1  0.345668702638  0.116852760686
CG3C50 CG3AM2  1  0.346559601357  0.118341390899
CG3C50 NG1T1  1  0.328741626994  0.177512086349
CG3C50 NG2D1  1  0.334087019303  0.187114168357
CG3C50 NG2S0  1  0.334087019303  0.004184000000
CG3C50 NG2S1  1  0.307360057758  0.187114168357
CG3C50 NG2S2  1  0.334087019303  0.187114168357
CG3C50 NG2S3  1  0.334087019303  0.187114168357
CG3C50 NG2O1  1  0.334087019303  0.187114168357
CG3C50 NG2P1  1  0.334087019303  0.187114168357
CG3C50 NG2R43  1  0.334087019303  0.187114168357
CG3C50 NG2R50  1  0.334087019303  0.187114168357
CG3C50 NG2R51  1  0.334087019303  0.187114168357
CG3C50 NG2R52  1  0.334087019303  0.187114168357
CG3C50 NG2R53  1  0.334087019303  0.187114168357
CG3C50 NG2R57  1  0.334087019303  0.187114168357
CG3C50 NG2R60  1  0.337650614175  0.102486650838
CG3C50 NG2R61  1  0.334087019303  0.187114168357
CG3C50 NG2R62  1  0.352795892384  0.093557084179
CG3C50 NG2R67  1  0.334087019303  0.187114168357
CG3C50 NG2RC0  1  0.334087019303  0.187114168357
CG3C50 NG301  1  0.347450500075  0.078275472531
CG3C50 NG311  1  0.347450500075  0.088756043175
CG3C50 NG321  1  0.346559601357  0.102486650838
CG3C50 NG331  1  0.345668702638  0.110698234855
CG3C50 NG3C51  1  0.334087019303  0.187114168357
CG3C50 NG3N1  1  0.351904993665  0.102486650838
CG3C50 NG3P0  1  0.334087019303  0.187114168357
CG3C50 NG3P1  1  0.334087019303  0.187114168357
CG3C50 NG3P2  1  0.334087019303  0.187114168357
CG3C50 NG3P3  1  0.334087019303  0.187114168357
CG3C50 OG2D1  1  0.293996576986  0.144938011577
CG3C50 OG2D2  1  0.320723538531  0.144938011577
CG3C50 OG2D3  1  0.293996576986  0.144938011577
CG3C50 OG2D4  1  0.320723538531  0.144938011577
CG3C50 OG2D5  1  0.320010819556  0.169954883425
CG3C50 OG2N1  1  0.320723538531  0.144938011577
CG3C50 OG2P1  1  0.320723538531  0.144938011577
CG3C50 OG2R50  1  0.320723538531  0.144938011577
CG3C50 OG3R60  1  0.316269044940  0.132309697301
CG3C50 OG301  1  0.316269044940  0.132309697301
CG3C50 OG302  1  0.316269044940  0.132309697301
CG3C50 OG303  1  0.316269044940  0.132309697301
CG3C50 OG304  1  0.316269044940  0.132309697301
CG3C50 OG311  1  0.326514380198  0.183381431383
CG3C50 OG312  1  0.325178032121  0.144938011577
CG3C50 OG3C31  1  0.316269044940  0.132309697301
CG3C50 OG3C51  1  0.316269044940  0.132309697301
CG3C50 OG3C61  1  0.316269044940  0.132309697301
CG3C50 OGTIP3  1  0.326799467788  0.163176000000
CG3C50 SG2D1  1  0.351904993665  0.314496560236
CG3C50 SG2R50  1  0.347450500075  0.280671252536
CG3C50 SG311  1  0.347450500075  0.280671252536
CG3C50 SG301  1  0.345223253279  0.257919081884
CG3C50 SG302  1  0.365268474438  0.286840588481
CG3C50 SG3O1  1  0.356359487256  0.286840588481
CG3C50 SG3O2  1  0.347450500075  0.247528778125
CG3C50 SG3O3  1  0.347450500075  0.247528778125
CG3C50  FGA1  1  0.314487247504  0.153729976257
CG3C50  FGA2  1  0.314487247504  0.135577095411
CG3C50  FGA3  1  0.311814551349  0.130309939452
CG3C50  FGP1  1  0.311814551349  0.130309939452
CG3C50  FGR1  1  0.320723538531  0.144938011577
CG3C50 CLGA1  1  0.339432411611  0.245040988571
CG3C50 CLGA3  1  0.339432411611  0.232955260941
CG3C50 BRGA1  1  0.344777803920  0.289876023155
CG3C50 BRGA2  1  0.351904993665  0.304599797767
CG3C50 BRGA3  1  0.347450500075  0.307459952514
CG3C50   SOD  1  0.294954293108  0.090610410351
CG3C50   CLA  1  0.371504765465  0.162045623205
CG3C50   PG0  1  0.360813980847  0.320014464673
CG3C50   PG1  1  0.360813980847  0.320014464673
CG3C50   PG2  1  0.360813980847  0.320014464673
CG3C50  ALG1  1  0.347450500075  0.337324864189
CG3C50   LPH  1  0.169270756447  0.000000000000
CG3C50 CLGR1  1  0.334977918021  0.200657590935
CG3C50 BRGR1  1  0.345668702638  0.236682781799
CG3C50  IGR1  1  0.368832069310  0.301712530731
CG3C50 SG2P1  1  0.355798221064  0.332305491450
CG3C50 OG2S1  1  0.318906105146  0.157831660601
CG3C50 SG2P2  1  0.352314807076  0.329421919951
CG3C50 SEGD1  1  0.363041227642  0.330244580395
CG3C50 BG201  1  0.396449929572  0.081561175077
CG3C50 CC301  1  0.338541512893  0.041840000000
CG3C50 CC3062  1  0.338541512893  0.041840000000
CG3C50 CC311  1  0.338541512893  0.041840000000
CG3C50 CC3161  1  0.338541512893  0.041840000000
CG3C50 CC3162  1  0.338541512893  0.041840000000
CG3C50 CC3163  1  0.338541512893  0.041840000000
CG3C50 CC321  1  0.338541512893  0.041840000000
CG3C50 CC3261  1  0.338541512893  0.041840000000
CG3C50 CC3263  1  0.338541512893  0.041840000000
CG3C50 CC331  1  0.338541512893  0.041840000000
CG3C50 CC2O1  1  0.347450500075  0.138767581228
CG3C50 CC2O2  1  0.347450500075  0.110698234855
CG3C50 CC2O3  1  0.347450500075  0.125520000000
CG3C50 CC2O4  1  0.329632525712  0.102486650838
CG3C50 CC2O5  1  0.320723538531  0.130979917850
CG3C50 OC2D1  1  0.293996576986  0.144938011577
CG3C50 OC2D2  1  0.320723538531  0.144938011577
CG3C50 OC2D3  1  0.293996576986  0.144938011577
CG3C50 OC2D4  1  0.293996576986  0.144938011577
CG3C50 OC3C61  1  0.316269044940  0.132309697301
CG3C50 OC311  1  0.326514380198  0.183381431383
CG3C50 NC2D1  1  0.307360057758  0.187114168357
CG3C50  HCP1  1  0.189271432669  0.089736802707
CG3C50  HCA1  1  0.288651184677  0.088756043175
CG3C50  HCA2  1  0.288651184677  0.078275472531
CG3C50  HCA3  1  0.288651184677  0.064818249282
CG3C50 CC312  1  0.338541512893  0.041840000000
CG3C50 CC322  1  0.338541512893  0.041840000000
CG3C50  HCR1  1  0.240542653898  0.089736802707
CG3C50 HCA3M  1  0.288651184677  0.064818249282
CG3C50 CC321C  1  0.338541512893  0.041840000000
CG3C50 CC321D  1  0.338541512893  0.041840000000
CG3C50 CC311C  1  0.338541512893  0.041840000000
CG3C50 CC311D  1  0.338541512893  0.041840000000
CG3C50 OC301  1  0.316269044940  0.132309697301
CG3C50 OC302  1  0.316269044940  0.132309697301
CG3C50 HCP1M  1  0.189271432669  0.089736802707
CG3C50 OC311M  1  0.326514380198  0.183381431383
CG3C50 OC3C5M  1  0.316269044940  0.132309697301
CG3C50 CC322C  1  0.338541512893  0.041840000000
CG3C50 HCA2C2  1  0.285087589805  0.078275472531
CG3C50 CC312C  1  0.338541512893  0.041840000000
CG3C50 HCA1C2  1  0.288651184677  0.088756043175
CG3C50 OC3C51  1  0.316269044940  0.132309697301
CG3C50 CC3152  1  0.338541512893  0.041840000000
CG3C50 CC3051  1  0.338541512893  0.041840000000
CG3C50 CC3251  1  0.338541512893  0.041840000000
CG3C50 CC3151  1  0.338541512893  0.041840000000
CG3C50 CC3153  1  0.338541512893  0.041840000000
CG3C50 OC2DP  1  0.320723538531  0.144938011577
CG3C50 OC312  1  0.326959829558  0.163176000000
CG3C50 OC30P  1  0.326959829558  0.163176000000
CG3C50    PC  1  0.360813980847  0.320014464673
CG3C50    SC  1  0.356359487256  0.286840588481
CG3C50 CC312D  1  0.338541512893  0.041840000000
CG3C50 OC303  1  0.316269044940  0.132309697301
CG3C50 NC311  1  0.347450500075  0.088756043175
CG3C50   HN1  1  0.189271432669  0.089736802707
CG3C50   HN2  1  0.189271432669  0.089736802707
CG3C50   HN3  1  0.267269615442  0.089736802707
CG3C50   HN4  1  0.189271432669  0.089736802707
CG3C50   HN5  1  0.189271432669  0.089736802707
CG3C50   HN6  1  0.286869387241  0.062058748940
CG3C50   HN7  1  0.286869387241  0.062058748940
CG3C50   HN8  1  0.288651184677  0.070011711020
CG3C50   HN9  1  0.288651184677  0.064818249282
CG3C50   NN1  1  0.334087019303  0.187114168357
CG3C50   NN2  1  0.334087019303  0.187114168357
CG3C50  NN2B  1  0.334087019303  0.187114168357
CG3C50  NN2G  1  0.334087019303  0.187114168357
CG3C50  NN2U  1  0.334087019303  0.187114168357
CG3C50   NN3  1  0.334087019303  0.187114168357
CG3C50  NN3A  1  0.334087019303  0.187114168357
CG3C50  NN3G  1  0.334087019303  0.187114168357
CG3C50   NN4  1  0.334087019303  0.187114168357
CG3C50   NN6  1  0.334087019303  0.187114168357
CG3C50   ON1  1  0.320723538531  0.144938011577
CG3C50  ON1C  1  0.320723538531  0.144938011577
CG3C50   ON2  1  0.326959829558  0.163176000000
CG3C50   ON3  1  0.320723538531  0.144938011577
CG3C50   ON4  1  0.326959829558  0.163176000000
CG3C50   ON5  1  0.326959829558  0.163176000000
CG3C50   ON6  1  0.326959829558  0.163176000000
CG3C50  ON6B  1  0.326959829558  0.163176000000
CG3C50   CN1  1  0.338541512893  0.132309697301
CG3C50  CN1T  1  0.338541512893  0.132309697301
CG3C50   CN2  1  0.338541512893  0.132309697301
CG3C50   CN3  1  0.338541512893  0.125520000000
CG3C50  CN3T  1  0.338541512893  0.125520000000
CG3C50   CN4  1  0.338541512893  0.114583559030
CG3C50   CN5  1  0.338541512893  0.114583559030
CG3C50  CN5G  1  0.338541512893  0.114583559030
CG3C50   CN7  1  0.338541512893  0.041840000000
CG3C50  CN7B  1  0.338541512893  0.041840000000
CG3C50   CN8  1  0.338541512893  0.041840000000
CG3C50  CN8B  1  0.338541512893  0.041840000000
CG3C50   CN9  1  0.338541512893  0.041840000000
CG3C50     P  1  0.360813980847  0.320014464673
CG3C50    P2  1  0.360813980847  0.320014464673
CG3C50    P3  1  0.360813980847  0.320014464673
CG3C50    P4  1  0.360813980847  0.320014464673
CG3C50   HOL  1  0.189271432669  0.089736802707
CG3C50  HAL1  1  0.286869387241  0.062058748940
CG3C50  HAL2  1  0.288651184677  0.070011711020
CG3C50  HAL3  1  0.288651184677  0.064818249282
CG3C50   HBL  1  0.286869387241  0.062058748940
CG3C50   HCL  1  0.189271432669  0.089736802707
CG3C50    HL  1  0.231633666716  0.089736802707
CG3C50  HEL1  1  0.280633096214  0.073666921749
CG3C50  HEL2  1  0.281523994932  0.067464972838
CG3C50    CL  1  0.347450500075  0.110698234855
CG3C50   CCL  1  0.347450500075  0.110698234855
CG3C50  CTL1  1  0.338541512893  0.041840000000
CG3C50  CTL2  1  0.338541512893  0.041840000000
CG3C50  CTL3  1  0.338541512893  0.041840000000
CG3C50  CTL5  1  0.338541512893  0.041840000000
CG3C50  CEL1  1  0.355468588538  0.109105371453
CG3C50  CEL2  1  0.354577689820  0.105847757841
CG3C50  CRL1  1  0.338541512893  0.041840000000
CG3C50  CRL2  1  0.338541512893  0.041840000000
CG3C50   OBL  1  0.293996576986  0.144938011577
CG3C50   OCL  1  0.320723538531  0.144938011577
CG3C50   O2L  1  0.320723538531  0.144938011577
CG3C50   OHL  1  0.326959829558  0.163176000000
CG3C50   OSL  1  0.316269044940  0.132309697301
CG3C50  OSLP  1  0.316269044940  0.132309697301
CG3C50  NH3L  1  0.334087019303  0.187114168357
CG3C50   NTL  1  0.334087019303  0.187114168357
CG3C50    SL  1  0.356359487256  0.286840588481
CG3C50    PL  1  0.360813980847  0.320014464673
CG3C50 HCA1A  1  0.288651184677  0.088756043175
CG3C50 HCA2A  1  0.288651184677  0.078275472531
CG3C50 HCA3A  1  0.288651184677  0.064818249282
CG3C50 CC30A  1  0.338541512893  0.041840000000
CG3C50 CC31A  1  0.338541512893  0.041840000000
CG3C50 CC32A  1  0.338541512893  0.041840000000
CG3C50 CC33A  1  0.338541512893  0.041840000000
CG3C50 CC326A  1  0.338541512893  0.041840000000
CG3C50 HCA25A  1  0.285087589805  0.078275472531
CG3C50 CC325A  1  0.338541512893  0.041840000000
CG3C50 CC325B  1  0.338541512893  0.041840000000
CG3C50 OC305A  1  0.316269044940  0.132309697301
CG3C50 OC30A  1  0.316269044940  0.132309697301
CG3C50  HSIO  1  0.189271432669  0.089736802707
CG3C50  HSIA  1  0.286869387241  0.062058748940
CG3C50   HAL  1  0.286869387241  0.062058748940
CG3C50    AL  1  0.365268474438  0.337324864189
CG3C50    SI  1  0.365268474438  0.324091246411
CG3C50  SIH3  1  0.365268474438  0.324091246411
CG3C50  OSIH  1  0.326959829558  0.163176000000
CG3C50  OSIE  1  0.326959829558  0.163176000000
CG3C50  OSIA  1  0.326959829558  0.163176000000
CG3C50   OAL  1  0.326959829558  0.163176000000
CG3C50    HT  1  0.189271432669  0.089736802707
CG3C50    OT  1  0.326799467788  0.163176000000
CG3C50   DUM  1  0.169270756447  0.000000000000
CG3C50    CM  1  0.356359487256  0.138767581228
CG3C50   CPA  1  0.329632525712  0.125520000000
CG3C50   CPB  1  0.329632525712  0.125520000000
CG3C50   CPM  1  0.329632525712  0.125520000000
CG3C50   CST  1  0.308518226092  0.100764063435
CG3C50  CT1X  1  0.338541512893  0.041840000000
CG3C50  CT2X  1  0.338541512893  0.041840000000
CG3C50  CT3X  1  0.338541512893  0.041840000000
CG3C50    HB  1  0.286869387241  0.062058748940
CG3C50   NPH  1  0.334087019303  0.187114168357
CG3C50    OM  1  0.320723538531  0.144938011577
CG3C50   OST  1  0.320010819556  0.169954883425
CG3C50   POT  1  0.326403017859  0.123410269913
CG3C50   CAL  1  0.291056611216  0.144938011577
CG3C50    MG  1  0.274842254546  0.051243325419
CG3C50   CES  1  0.356359487256  0.182376331798
CG3C50    ZN  1  0.266378716724  0.209200000000
CG3C50    FE  1  0.227179173126  0.000000000000
CG3C50    HE  1  0.301123766731  0.061020452073
CG3C50    NE  1  0.305578260322  0.122698965603
CG3C50  CLAL  1  0.339272049842  0.072469005789
CG3C50    AG  1  0.300901042052  0.893457908130
CG3C50    AU  1  0.300722862308  0.962320000000
CG3C50    CU  1  0.285800308779  0.908997471504
CG3C50    NI  1  0.282949432881  0.994525446633
CG3C50    PB  1  0.328073452955  0.716185437439
CG3C50    PD  1  0.294842930769  1.037598257516
CG3C50    PT  1  0.296001099102  1.168527606863
CG3C50   CAP  1  0.346773417049  0.110698234855
CG3C50    FA  1  0.320723538531  0.144938011577
CG3C50    CN  1  0.325178032121  0.187114168357
CG3C50    NC  1  0.334087019303  0.324091246411
CG3C50   OCA  1  0.293996576986  0.144938011577
CG3C50   COA  1  0.347450500075  0.138767581228
CG3C50   CF1  1  0.338541512893  0.102486650838
CG3C50   CF2  1  0.351904993665  0.085746484010
CG3C50   CF3  1  0.374177461619  0.059170695450
CG3C50   HF1  1  0.286869387241  0.070011711020
CG3C50   HF2  1  0.285087589805  0.072469005789
CG3C50    F1  1  0.314487247504  0.153729976257
CG3C50    F2  1  0.314487247504  0.135577095411
CG3C50    F3  1  0.311814551349  0.130309939452
CG3C50    OX  1  0.320723538531  0.144938011577
CG3C50    HX  1  0.189271432669  0.089736802707
CG3C50  HPER  1  0.189271432669  0.089736802707
CG3C50  OPER  1  0.318427692534  0.188901923946
CG3C50   LIT  1  0.284864865125  0.020196198771
CG3C50   RUB  1  0.338541512893  0.162045623205
CG3C50   BAR  1  0.337650614175  0.162045623205
CG3C50   CAD  1  0.290165712498  0.144938011577
CG3C50  ON2B  1  0.326959829558  0.163176000000
CG3C50    SP  1  0.365268474438  0.280671252536
CG3C50   HNP  1  0.290272620344  0.072469005789
CG3C50  HNE1  1  0.280633096214  0.073666921749
CG3C50  HNE2  1  0.281523994932  0.067464972838
CG3C50  CN3D  1  0.338541512893  0.125520000000
CG3C50  CNE1  1  0.355468588538  0.109105371453
CG3C50  CNE2  1  0.354577689820  0.105847757841
CG3C50   CNA  1  0.346773417049  0.110698234855
CG3C50  CNA2  1  0.338541512893  0.110698234855
CG3C50   CNG  1  0.347450500075  0.138767581228
CG3C50  NN1C  1  0.334087019303  0.187114168357
CG3C50  NN2C  1  0.334087019303  0.187114168357
CG3C50  NN3I  1  0.334087019303  0.187114168357
CG3C50   NNG  1  0.334087019303  0.187114168357
CG3C50   FNA  1  0.320723538531  0.144938011577
CG3C50  ON2M  1  0.316269044940  0.132309697301
CG3C50   CN6  1  0.338541512893  0.041840000000
CG3C50  CN7E  1  0.338541512893  0.041840000000
CG3C50  CT2P  1  0.338541512893  0.041840000000
CG3C50  CTD1  1  0.338541512893  0.041840000000
CG3C50  CPD1  1  0.338541512893  0.041840000000
CG3C50  CC1A  1  0.355468588538  0.109105371453
CG3C50  CC1B  1  0.355468588538  0.109105371453
CG3C50   CC2  1  0.354577689820  0.105847757841
CG3C50   NS1  1  0.334087019303  0.187114168357
CG3C50   NS2  1  0.334087019303  0.187114168357
CG3C50   NHL  1  0.307360057758  0.187114168357
CG3C50  CTO1  1  0.338541512893  0.041840000000
CG3C50  CEL3  1  0.355468588538  0.109105371453
CG3C50  CTO2  1  0.338541512893  0.041840000000
CG3C50  HN3B  1  0.249451641079  0.089736802707
CG3C50  CN1A  1  0.347450500075  0.110698234855
CG3C50  CN3A  1  0.329632525712  0.177512086349
CG3C50  CN3B  1  0.329632525712  0.177512086349
CG3C50  CN3C  1  0.329632525712  0.177512086349
CG3C51     C  1  0.347450500075  0.138767581228
CG3C51    CA  1  0.346773417049  0.110698234855
CG3C51    CC  1  0.347450500075  0.110698234855
CG3C51    CD  1  0.347450500075  0.110698234855
CG3C51   CE1  1  0.355468588538  0.109105371453
CG3C51   CE2  1  0.354577689820  0.105847757841
CG3C51   CP1  1  0.338541512893  0.041840000000
CG3C51   CP2  1  0.338541512893  0.041840000000
CG3C51   CP3  1  0.338541512893  0.041840000000
CG3C51  CPH1  1  0.329632525712  0.093557084179
CG3C51  CPH2  1  0.329632525712  0.093557084179
CG3C51    CS  1  0.365268474438  0.138767581228
CG3C51   CPT  1  0.334977918021  0.131646486622
CG3C51    CY  1  0.346559601357  0.113045454929
CG3C51   CAI  1  0.346559601357  0.113045454929
CG3C51    CT  1  0.338541512893  0.041840000000
CG3C51   CT1  1  0.338541512893  0.041840000000
CG3C51   CT2  1  0.338541512893  0.041840000000
CG3C51  CT2A  1  0.338541512893  0.041840000000
CG3C51   CT3  1  0.338541512893  0.041840000000
CG3C51    C3  1  0.371950214824  0.059170695450
CG3C51     H  1  0.189271432669  0.089736802707
CG3C51    HA  1  0.286869387241  0.062058748940
CG3C51   HB1  1  0.286869387241  0.062058748940
CG3C51   HB2  1  0.288651184677  0.070011711020
CG3C51   HE1  1  0.280633096214  0.073666921749
CG3C51   HE2  1  0.281523994932  0.067464972838
CG3C51    HC  1  0.189271432669  0.089736802707
CG3C51    HP  1  0.290272620344  0.072469005789
CG3C51   HR1  1  0.249451641079  0.089736802707
CG3C51   HR2  1  0.231633666716  0.089736802707
CG3C51   HR3  1  0.300054688270  0.036952087465
CG3C51    HS  1  0.209361198763  0.132309697301
CG3C51   HA1  1  0.288651184677  0.088756043175
CG3C51   HA2  1  0.288651184677  0.077149148019
CG3C51   HA3  1  0.288651184677  0.064818249282
CG3C51     N  1  0.334087019303  0.004184000000
CG3C51   NC2  1  0.334087019303  0.187114168357
CG3C51   NH1  1  0.307360057758  0.187114168357
CG3C51   NH2  1  0.334087019303  0.187114168357
CG3C51   NH3  1  0.334087019303  0.187114168357
CG3C51    NP  1  0.334087019303  0.187114168357
CG3C51   NR1  1  0.334087019303  0.187114168357
CG3C51   NR2  1  0.334087019303  0.187114168357
CG3C51   NR3  1  0.334087019303  0.187114168357
CG3C51    NY  1  0.334087019303  0.187114168357
CG3C51     O  1  0.293996576986  0.144938011577
CG3C51    OB  1  0.293996576986  0.144938011577
CG3C51    OC  1  0.320723538531  0.144938011577
CG3C51   OH1  1  0.326959829558  0.163176000000
CG3C51    OS  1  0.326959829558  0.163176000000
CG3C51     S  1  0.347450500075  0.280671252536
CG3C51    SM  1  0.345223253279  0.257919081884
CG3C51    SS  1  0.365268474438  0.286840588481
CG3C51  HGA1  1  0.288651184677  0.088756043175
CG3C51  HGA2  1  0.288651184677  0.078275472531
CG3C51  HGA3  1  0.288651184677  0.064818249282
CG3C51  HGA4  1  0.280633096214  0.073666921749
CG3C51  HGA5  1  0.281523994932  0.067464972838
CG3C51  HGA6  1  0.286869387241  0.070011711020
CG3C51  HGA7  1  0.285087589805  0.072469005789
CG3C51 HGAAM0  1  0.283305792369  0.070011711020
CG3C51 HGAAM1  1  0.283305792369  0.070011711020
CG3C51 HGAAM2  1  0.281523994932  0.083680000000
CG3C51  HGP1  1  0.189271432669  0.089736802707
CG3C51  HGP2  1  0.189271432669  0.089736802707
CG3C51  HGP3  1  0.209361198763  0.132309697301
CG3C51  HGP4  1  0.189271432669  0.089736802707
CG3C51  HGP5  1  0.231633666716  0.089736802707
CG3C51 HGPAM1  1  0.247224394284  0.039692909190
CG3C51 HGPAM2  1  0.247224394284  0.041840000000
CG3C51 HGPAM3  1  0.246778944925  0.045833423612
CG3C51 HGR51  1  0.290272620344  0.072469005789
CG3C51 HGR52  1  0.249451641079  0.089736802707
CG3C51 HGR53  1  0.231633666716  0.089736802707
CG3C51 HGR61  1  0.290272620344  0.072469005789
CG3C51 HGR62  1  0.267269615442  0.089736802707
CG3C51 HGR63  1  0.249451641079  0.089736802707
CG3C51 HGR71  1  0.290272620344  0.072469005789
CG3C51 HGTIP3  1  0.189271432669  0.089736802707
CG3C51 CG1T1  1  0.333196120584  0.170981810495
CG3C51 CG1T2  1  0.346782326036  0.134409982486
CG3C51 CG1N1  1  0.335868816739  0.177512086349
CG3C51 CG2D1  1  0.355468588538  0.109105371453
CG3C51 CG2D2  1  0.354577689820  0.105847757841
CG3C51 CG2D1O  1  0.355468588538  0.109105371453
CG3C51 CG2D2O  1  0.355468588538  0.109105371453
CG3C51 CG2DC1  1  0.355468588538  0.109105371453
CG3C51 CG2DC2  1  0.355468588538  0.109105371453
CG3C51 CG2DC3  1  0.354577689820  0.105847757841
CG3C51 CG2N1  1  0.347450500075  0.138767581228
CG3C51 CG2N2  1  0.347450500075  0.138767581228
CG3C51 CG2O1  1  0.347450500075  0.138767581228
CG3C51 CG2O2  1  0.320723538531  0.130979917850
CG3C51 CG2O3  1  0.347450500075  0.110698234855
CG3C51 CG2O4  1  0.329632525712  0.102486650838
CG3C51 CG2O5  1  0.347450500075  0.125520000000
CG3C51 CG2O6  1  0.347450500075  0.110698234855
CG3C51 CG2O7  1  0.308518226092  0.100764063435
CG3C51 CG2R51  1  0.356359487256  0.093557084179
CG3C51 CG2R52  1  0.365268474438  0.059170695450
CG3C51 CG2R53  1  0.365268474438  0.059170695450
CG3C51 CG2R57  1  0.356359487256  0.093557084179
CG3C51 CG25C1  1  0.355468588538  0.109105371453
CG3C51 CG25C2  1  0.355468588538  0.109105371453
CG3C51 CG251O  1  0.355468588538  0.109105371453
CG3C51 CG252O  1  0.355468588538  0.109105371453
CG3C51 CG2R61  1  0.346773417049  0.110698234855
CG3C51 CG2R62  1  0.338541512893  0.125520000000
CG3C51 CG2R63  1  0.338541512893  0.132309697301
CG3C51 CG2R64  1  0.356359487256  0.083680000000
CG3C51 CG2R66  1  0.338541512893  0.110698234855
CG3C51 CG2R67  1  0.346773417049  0.110698234855
CG3C51 CG2RC0  1  0.334977918021  0.131646486622
CG3C51 CG2R71  1  0.346987232741  0.108300154755
CG3C51 CG2RC7  1  0.334977918021  0.131646486622
CG3C51 CG301  1  0.338541512893  0.041840000000
CG3C51 CG302  1  0.374177461619  0.059170695450
CG3C51 CG311  1  0.338541512893  0.041840000000
CG3C51 CG312  1  0.351904993665  0.085746484010
CG3C51 CG314  1  0.338541512893  0.041840000000
CG3C51 CG321  1  0.338541512893  0.041840000000
CG3C51 CG322  1  0.338541512893  0.102486650838
CG3C51 CG323  1  0.365268474438  0.138767581228
CG3C51 CG324  1  0.338541512893  0.041840000000
CG3C51 CG331  1  0.338541512893  0.041840000000
CG3C51 CG334  1  0.338541512893  0.041840000000
CG3C51 CG3C50  1  0.338541512893  0.041840000000
CG3C51 CG3C51  1  0.338541512893  0.041840000000
CG3C51 CG3C52  1  0.338541512893  0.041840000000
CG3C51 CG3C53  1  0.338541512893  0.041840000000
CG3C51 CG3C54  1  0.338541512893  0.041840000000
CG3C51 CG3C31  1  0.338541512893  0.041840000000
CG3C51 CG3C41  1  0.338541512893  0.041840000000
CG3C51 CG3RC1  1  0.338541512893  0.041840000000
CG3C51 CG3AM0  1  0.344777803920  0.110698234855
CG3C51 CG3AM1  1  0.345668702638  0.116852760686
CG3C51 CG3AM2  1  0.346559601357  0.118341390899
CG3C51 NG1T1  1  0.328741626994  0.177512086349
CG3C51 NG2D1  1  0.334087019303  0.187114168357
CG3C51 NG2S0  1  0.334087019303  0.004184000000
CG3C51 NG2S1  1  0.307360057758  0.187114168357
CG3C51 NG2S2  1  0.334087019303  0.187114168357
CG3C51 NG2S3  1  0.334087019303  0.187114168357
CG3C51 NG2O1  1  0.334087019303  0.187114168357
CG3C51 NG2P1  1  0.334087019303  0.187114168357
CG3C51 NG2R43  1  0.334087019303  0.187114168357
CG3C51 NG2R50  1  0.334087019303  0.187114168357
CG3C51 NG2R51  1  0.334087019303  0.187114168357
CG3C51 NG2R52  1  0.334087019303  0.187114168357
CG3C51 NG2R53  1  0.334087019303  0.187114168357
CG3C51 NG2R57  1  0.334087019303  0.187114168357
CG3C51 NG2R60  1  0.337650614175  0.102486650838
CG3C51 NG2R61  1  0.334087019303  0.187114168357
CG3C51 NG2R62  1  0.352795892384  0.093557084179
CG3C51 NG2R67  1  0.334087019303  0.187114168357
CG3C51 NG2RC0  1  0.334087019303  0.187114168357
CG3C51 NG301  1  0.347450500075  0.078275472531
CG3C51 NG311  1  0.347450500075  0.088756043175
CG3C51 NG321  1  0.346559601357  0.102486650838
CG3C51 NG331  1  0.345668702638  0.110698234855
CG3C51 NG3C51  1  0.334087019303  0.187114168357
CG3C51 NG3N1  1  0.351904993665  0.102486650838
CG3C51 NG3P0  1  0.334087019303  0.187114168357
CG3C51 NG3P1  1  0.334087019303  0.187114168357
CG3C51 NG3P2  1  0.334087019303  0.187114168357
CG3C51 NG3P3  1  0.334087019303  0.187114168357
CG3C51 OG2D1  1  0.293996576986  0.144938011577
CG3C51 OG2D2  1  0.320723538531  0.144938011577
CG3C51 OG2D3  1  0.293996576986  0.144938011577
CG3C51 OG2D4  1  0.320723538531  0.144938011577
CG3C51 OG2D5  1  0.320010819556  0.169954883425
CG3C51 OG2N1  1  0.320723538531  0.144938011577
CG3C51 OG2P1  1  0.320723538531  0.144938011577
CG3C51 OG2R50  1  0.320723538531  0.144938011577
CG3C51 OG3R60  1  0.316269044940  0.132309697301
CG3C51 OG301  1  0.316269044940  0.132309697301
CG3C51 OG302  1  0.316269044940  0.132309697301
CG3C51 OG303  1  0.316269044940  0.132309697301
CG3C51 OG304  1  0.316269044940  0.132309697301
CG3C51 OG311  1  0.326514380198  0.183381431383
CG3C51 OG312  1  0.325178032121  0.144938011577
CG3C51 OG3C31  1  0.316269044940  0.132309697301
CG3C51 OG3C51  1  0.316269044940  0.132309697301
CG3C51 OG3C61  1  0.316269044940  0.132309697301
CG3C51 OGTIP3  1  0.326799467788  0.163176000000
CG3C51 SG2D1  1  0.351904993665  0.314496560236
CG3C51 SG2R50  1  0.347450500075  0.280671252536
CG3C51 SG311  1  0.347450500075  0.280671252536
CG3C51 SG301  1  0.345223253279  0.257919081884
CG3C51 SG302  1  0.365268474438  0.286840588481
CG3C51 SG3O1  1  0.356359487256  0.286840588481
CG3C51 SG3O2  1  0.347450500075  0.247528778125
CG3C51 SG3O3  1  0.347450500075  0.247528778125
CG3C51  FGA1  1  0.314487247504  0.153729976257
CG3C51  FGA2  1  0.314487247504  0.135577095411
CG3C51  FGA3  1  0.311814551349  0.130309939452
CG3C51  FGP1  1  0.311814551349  0.130309939452
CG3C51  FGR1  1  0.320723538531  0.144938011577
CG3C51 CLGA1  1  0.339432411611  0.245040988571
CG3C51 CLGA3  1  0.339432411611  0.232955260941
CG3C51 BRGA1  1  0.344777803920  0.289876023155
CG3C51 BRGA2  1  0.351904993665  0.304599797767
CG3C51 BRGA3  1  0.347450500075  0.307459952514
CG3C51   SOD  1  0.294954293108  0.090610410351
CG3C51   CLA  1  0.371504765465  0.162045623205
CG3C51   PG0  1  0.360813980847  0.320014464673
CG3C51   PG1  1  0.360813980847  0.320014464673
CG3C51   PG2  1  0.360813980847  0.320014464673
CG3C51  ALG1  1  0.347450500075  0.337324864189
CG3C51   LPH  1  0.169270756447  0.000000000000
CG3C51 CLGR1  1  0.334977918021  0.200657590935
CG3C51 BRGR1  1  0.345668702638  0.236682781799
CG3C51  IGR1  1  0.368832069310  0.301712530731
CG3C51 SG2P1  1  0.355798221064  0.332305491450
CG3C51 OG2S1  1  0.318906105146  0.157831660601
CG3C51 SG2P2  1  0.352314807076  0.329421919951
CG3C51 SEGD1  1  0.363041227642  0.330244580395
CG3C51 BG201  1  0.396449929572  0.081561175077
CG3C51 CC301  1  0.338541512893  0.041840000000
CG3C51 CC3062  1  0.338541512893  0.041840000000
CG3C51 CC311  1  0.338541512893  0.041840000000
CG3C51 CC3161  1  0.338541512893  0.041840000000
CG3C51 CC3162  1  0.338541512893  0.041840000000
CG3C51 CC3163  1  0.338541512893  0.041840000000
CG3C51 CC321  1  0.338541512893  0.041840000000
CG3C51 CC3261  1  0.338541512893  0.041840000000
CG3C51 CC3263  1  0.338541512893  0.041840000000
CG3C51 CC331  1  0.338541512893  0.041840000000
CG3C51 CC2O1  1  0.347450500075  0.138767581228
CG3C51 CC2O2  1  0.347450500075  0.110698234855
CG3C51 CC2O3  1  0.347450500075  0.125520000000
CG3C51 CC2O4  1  0.329632525712  0.102486650838
CG3C51 CC2O5  1  0.320723538531  0.130979917850
CG3C51 OC2D1  1  0.293996576986  0.144938011577
CG3C51 OC2D2  1  0.320723538531  0.144938011577
CG3C51 OC2D3  1  0.293996576986  0.144938011577
CG3C51 OC2D4  1  0.293996576986  0.144938011577
CG3C51 OC3C61  1  0.316269044940  0.132309697301
CG3C51 OC311  1  0.326514380198  0.183381431383
CG3C51 NC2D1  1  0.307360057758  0.187114168357
CG3C51  HCP1  1  0.189271432669  0.089736802707
CG3C51  HCA1  1  0.288651184677  0.088756043175
CG3C51  HCA2  1  0.288651184677  0.078275472531
CG3C51  HCA3  1  0.288651184677  0.064818249282
CG3C51 CC312  1  0.338541512893  0.041840000000
CG3C51 CC322  1  0.338541512893  0.041840000000
CG3C51  HCR1  1  0.240542653898  0.089736802707
CG3C51 HCA3M  1  0.288651184677  0.064818249282
CG3C51 CC321C  1  0.338541512893  0.041840000000
CG3C51 CC321D  1  0.338541512893  0.041840000000
CG3C51 CC311C  1  0.338541512893  0.041840000000
CG3C51 CC311D  1  0.338541512893  0.041840000000
CG3C51 OC301  1  0.316269044940  0.132309697301
CG3C51 OC302  1  0.316269044940  0.132309697301
CG3C51 HCP1M  1  0.189271432669  0.089736802707
CG3C51 OC311M  1  0.326514380198  0.183381431383
CG3C51 OC3C5M  1  0.316269044940  0.132309697301
CG3C51 CC322C  1  0.338541512893  0.041840000000
CG3C51 HCA2C2  1  0.285087589805  0.078275472531
CG3C51 CC312C  1  0.338541512893  0.041840000000
CG3C51 HCA1C2  1  0.288651184677  0.088756043175
CG3C51 OC3C51  1  0.316269044940  0.132309697301
CG3C51 CC3152  1  0.338541512893  0.041840000000
CG3C51 CC3051  1  0.338541512893  0.041840000000
CG3C51 CC3251  1  0.338541512893  0.041840000000
CG3C51 CC3151  1  0.338541512893  0.041840000000
CG3C51 CC3153  1  0.338541512893  0.041840000000
CG3C51 OC2DP  1  0.320723538531  0.144938011577
CG3C51 OC312  1  0.326959829558  0.163176000000
CG3C51 OC30P  1  0.326959829558  0.163176000000
CG3C51    PC  1  0.360813980847  0.320014464673
CG3C51    SC  1  0.356359487256  0.286840588481
CG3C51 CC312D  1  0.338541512893  0.041840000000
CG3C51 OC303  1  0.316269044940  0.132309697301
CG3C51 NC311  1  0.347450500075  0.088756043175
CG3C51   HN1  1  0.189271432669  0.089736802707
CG3C51   HN2  1  0.189271432669  0.089736802707
CG3C51   HN3  1  0.267269615442  0.089736802707
CG3C51   HN4  1  0.189271432669  0.089736802707
CG3C51   HN5  1  0.189271432669  0.089736802707
CG3C51   HN6  1  0.286869387241  0.062058748940
CG3C51   HN7  1  0.286869387241  0.062058748940
CG3C51   HN8  1  0.288651184677  0.070011711020
CG3C51   HN9  1  0.288651184677  0.064818249282
CG3C51   NN1  1  0.334087019303  0.187114168357
CG3C51   NN2  1  0.334087019303  0.187114168357
CG3C51  NN2B  1  0.334087019303  0.187114168357
CG3C51  NN2G  1  0.334087019303  0.187114168357
CG3C51  NN2U  1  0.334087019303  0.187114168357
CG3C51   NN3  1  0.334087019303  0.187114168357
CG3C51  NN3A  1  0.334087019303  0.187114168357
CG3C51  NN3G  1  0.334087019303  0.187114168357
CG3C51   NN4  1  0.334087019303  0.187114168357
CG3C51   NN6  1  0.334087019303  0.187114168357
CG3C51   ON1  1  0.320723538531  0.144938011577
CG3C51  ON1C  1  0.320723538531  0.144938011577
CG3C51   ON2  1  0.326959829558  0.163176000000
CG3C51   ON3  1  0.320723538531  0.144938011577
CG3C51   ON4  1  0.326959829558  0.163176000000
CG3C51   ON5  1  0.326959829558  0.163176000000
CG3C51   ON6  1  0.326959829558  0.163176000000
CG3C51  ON6B  1  0.326959829558  0.163176000000
CG3C51   CN1  1  0.338541512893  0.132309697301
CG3C51  CN1T  1  0.338541512893  0.132309697301
CG3C51   CN2  1  0.338541512893  0.132309697301
CG3C51   CN3  1  0.338541512893  0.125520000000
CG3C51  CN3T  1  0.338541512893  0.125520000000
CG3C51   CN4  1  0.338541512893  0.114583559030
CG3C51   CN5  1  0.338541512893  0.114583559030
CG3C51  CN5G  1  0.338541512893  0.114583559030
CG3C51   CN7  1  0.338541512893  0.041840000000
CG3C51  CN7B  1  0.338541512893  0.041840000000
CG3C51   CN8  1  0.338541512893  0.041840000000
CG3C51  CN8B  1  0.338541512893  0.041840000000
CG3C51   CN9  1  0.338541512893  0.041840000000
CG3C51     P  1  0.360813980847  0.320014464673
CG3C51    P2  1  0.360813980847  0.320014464673
CG3C51    P3  1  0.360813980847  0.320014464673
CG3C51    P4  1  0.360813980847  0.320014464673
CG3C51   HOL  1  0.189271432669  0.089736802707
CG3C51  HAL1  1  0.286869387241  0.062058748940
CG3C51  HAL2  1  0.288651184677  0.070011711020
CG3C51  HAL3  1  0.288651184677  0.064818249282
CG3C51   HBL  1  0.286869387241  0.062058748940
CG3C51   HCL  1  0.189271432669  0.089736802707
CG3C51    HL  1  0.231633666716  0.089736802707
CG3C51  HEL1  1  0.280633096214  0.073666921749
CG3C51  HEL2  1  0.281523994932  0.067464972838
CG3C51    CL  1  0.347450500075  0.110698234855
CG3C51   CCL  1  0.347450500075  0.110698234855
CG3C51  CTL1  1  0.338541512893  0.041840000000
CG3C51  CTL2  1  0.338541512893  0.041840000000
CG3C51  CTL3  1  0.338541512893  0.041840000000
CG3C51  CTL5  1  0.338541512893  0.041840000000
CG3C51  CEL1  1  0.355468588538  0.109105371453
CG3C51  CEL2  1  0.354577689820  0.105847757841
CG3C51  CRL1  1  0.338541512893  0.041840000000
CG3C51  CRL2  1  0.338541512893  0.041840000000
CG3C51   OBL  1  0.293996576986  0.144938011577
CG3C51   OCL  1  0.320723538531  0.144938011577
CG3C51   O2L  1  0.320723538531  0.144938011577
CG3C51   OHL  1  0.326959829558  0.163176000000
CG3C51   OSL  1  0.316269044940  0.132309697301
CG3C51  OSLP  1  0.316269044940  0.132309697301
CG3C51  NH3L  1  0.334087019303  0.187114168357
CG3C51   NTL  1  0.334087019303  0.187114168357
CG3C51    SL  1  0.356359487256  0.286840588481
CG3C51    PL  1  0.360813980847  0.320014464673
CG3C51 HCA1A  1  0.288651184677  0.088756043175
CG3C51 HCA2A  1  0.288651184677  0.078275472531
CG3C51 HCA3A  1  0.288651184677  0.064818249282
CG3C51 CC30A  1  0.338541512893  0.041840000000
CG3C51 CC31A  1  0.338541512893  0.041840000000
CG3C51 CC32A  1  0.338541512893  0.041840000000
CG3C51 CC33A  1  0.338541512893  0.041840000000
CG3C51 CC326A  1  0.338541512893  0.041840000000
CG3C51 HCA25A  1  0.285087589805  0.078275472531
CG3C51 CC325A  1  0.338541512893  0.041840000000
CG3C51 CC325B  1  0.338541512893  0.041840000000
CG3C51 OC305A  1  0.316269044940  0.132309697301
CG3C51 OC30A  1  0.316269044940  0.132309697301
CG3C51  HSIO  1  0.189271432669  0.089736802707
CG3C51  HSIA  1  0.286869387241  0.062058748940
CG3C51   HAL  1  0.286869387241  0.062058748940
CG3C51    AL  1  0.365268474438  0.337324864189
CG3C51    SI  1  0.365268474438  0.324091246411
CG3C51  SIH3  1  0.365268474438  0.324091246411
CG3C51  OSIH  1  0.326959829558  0.163176000000
CG3C51  OSIE  1  0.326959829558  0.163176000000
CG3C51  OSIA  1  0.326959829558  0.163176000000
CG3C51   OAL  1  0.326959829558  0.163176000000
CG3C51    HT  1  0.189271432669  0.089736802707
CG3C51    OT  1  0.326799467788  0.163176000000
CG3C51   DUM  1  0.169270756447  0.000000000000
CG3C51    CM  1  0.356359487256  0.138767581228
CG3C51   CPA  1  0.329632525712  0.125520000000
CG3C51   CPB  1  0.329632525712  0.125520000000
CG3C51   CPM  1  0.329632525712  0.125520000000
CG3C51   CST  1  0.308518226092  0.100764063435
CG3C51  CT1X  1  0.338541512893  0.041840000000
CG3C51  CT2X  1  0.338541512893  0.041840000000
CG3C51  CT3X  1  0.338541512893  0.041840000000
CG3C51    HB  1  0.286869387241  0.062058748940
CG3C51   NPH  1  0.334087019303  0.187114168357
CG3C51    OM  1  0.320723538531  0.144938011577
CG3C51   OST  1  0.320010819556  0.169954883425
CG3C51   POT  1  0.326403017859  0.123410269913
CG3C51   CAL  1  0.291056611216  0.144938011577
CG3C51    MG  1  0.274842254546  0.051243325419
CG3C51   CES  1  0.356359487256  0.182376331798
CG3C51    ZN  1  0.266378716724  0.209200000000
CG3C51    FE  1  0.227179173126  0.000000000000
CG3C51    HE  1  0.301123766731  0.061020452073
CG3C51    NE  1  0.305578260322  0.122698965603
CG3C51  CLAL  1  0.339272049842  0.072469005789
CG3C51    AG  1  0.300901042052  0.893457908130
CG3C51    AU  1  0.300722862308  0.962320000000
CG3C51    CU  1  0.285800308779  0.908997471504
CG3C51    NI  1  0.282949432881  0.994525446633
CG3C51    PB  1  0.328073452955  0.716185437439
CG3C51    PD  1  0.294842930769  1.037598257516
CG3C51    PT  1  0.296001099102  1.168527606863
CG3C51   CAP  1  0.346773417049  0.110698234855
CG3C51    FA  1  0.320723538531  0.144938011577
CG3C51    CN  1  0.325178032121  0.187114168357
CG3C51    NC  1  0.334087019303  0.324091246411
CG3C51   OCA  1  0.293996576986  0.144938011577
CG3C51   COA  1  0.347450500075  0.138767581228
CG3C51   CF1  1  0.338541512893  0.102486650838
CG3C51   CF2  1  0.351904993665  0.085746484010
CG3C51   CF3  1  0.374177461619  0.059170695450
CG3C51   HF1  1  0.286869387241  0.070011711020
CG3C51   HF2  1  0.285087589805  0.072469005789
CG3C51    F1  1  0.314487247504  0.153729976257
CG3C51    F2  1  0.314487247504  0.135577095411
CG3C51    F3  1  0.311814551349  0.130309939452
CG3C51    OX  1  0.320723538531  0.144938011577
CG3C51    HX  1  0.189271432669  0.089736802707
CG3C51  HPER  1  0.189271432669  0.089736802707
CG3C51  OPER  1  0.318427692534  0.188901923946
CG3C51   LIT  1  0.284864865125  0.020196198771
CG3C51   RUB  1  0.338541512893  0.162045623205
CG3C51   BAR  1  0.337650614175  0.162045623205
CG3C51   CAD  1  0.290165712498  0.144938011577
CG3C51  ON2B  1  0.326959829558  0.163176000000
CG3C51    SP  1  0.365268474438  0.280671252536
CG3C51   HNP  1  0.290272620344  0.072469005789
CG3C51  HNE1  1  0.280633096214  0.073666921749
CG3C51  HNE2  1  0.281523994932  0.067464972838
CG3C51  CN3D  1  0.338541512893  0.125520000000
CG3C51  CNE1  1  0.355468588538  0.109105371453
CG3C51  CNE2  1  0.354577689820  0.105847757841
CG3C51   CNA  1  0.346773417049  0.110698234855
CG3C51  CNA2  1  0.338541512893  0.110698234855
CG3C51   CNG  1  0.347450500075  0.138767581228
CG3C51  NN1C  1  0.334087019303  0.187114168357
CG3C51  NN2C  1  0.334087019303  0.187114168357
CG3C51  NN3I  1  0.334087019303  0.187114168357
CG3C51   NNG  1  0.334087019303  0.187114168357
CG3C51   FNA  1  0.320723538531  0.144938011577
CG3C51  ON2M  1  0.316269044940  0.132309697301
CG3C51   CN6  1  0.338541512893  0.041840000000
CG3C51  CN7E  1  0.338541512893  0.041840000000
CG3C51  CT2P  1  0.338541512893  0.041840000000
CG3C51  CTD1  1  0.338541512893  0.041840000000
CG3C51  CPD1  1  0.338541512893  0.041840000000
CG3C51  CC1A  1  0.355468588538  0.109105371453
CG3C51  CC1B  1  0.355468588538  0.109105371453
CG3C51   CC2  1  0.354577689820  0.105847757841
CG3C51   NS1  1  0.334087019303  0.187114168357
CG3C51   NS2  1  0.334087019303  0.187114168357
CG3C51   NHL  1  0.307360057758  0.187114168357
CG3C51  CTO1  1  0.338541512893  0.041840000000
CG3C51  CEL3  1  0.355468588538  0.109105371453
CG3C51  CTO2  1  0.338541512893  0.041840000000
CG3C51  HN3B  1  0.249451641079  0.089736802707
CG3C51  CN1A  1  0.347450500075  0.110698234855
CG3C51  CN3A  1  0.329632525712  0.177512086349
CG3C51  CN3B  1  0.329632525712  0.177512086349
CG3C51  CN3C  1  0.329632525712  0.177512086349
CG3C52     C  1  0.347450500075  0.138767581228
CG3C52    CA  1  0.346773417049  0.110698234855
CG3C52    CC  1  0.347450500075  0.110698234855
CG3C52    CD  1  0.347450500075  0.110698234855
CG3C52   CE1  1  0.355468588538  0.109105371453
CG3C52   CE2  1  0.354577689820  0.105847757841
CG3C52   CP1  1  0.338541512893  0.041840000000
CG3C52   CP2  1  0.338541512893  0.041840000000
CG3C52   CP3  1  0.338541512893  0.041840000000
CG3C52  CPH1  1  0.329632525712  0.093557084179
CG3C52  CPH2  1  0.329632525712  0.093557084179
CG3C52    CS  1  0.365268474438  0.138767581228
CG3C52   CPT  1  0.334977918021  0.131646486622
CG3C52    CY  1  0.346559601357  0.113045454929
CG3C52   CAI  1  0.346559601357  0.113045454929
CG3C52    CT  1  0.338541512893  0.041840000000
CG3C52   CT1  1  0.338541512893  0.041840000000
CG3C52   CT2  1  0.338541512893  0.041840000000
CG3C52  CT2A  1  0.338541512893  0.041840000000
CG3C52   CT3  1  0.338541512893  0.041840000000
CG3C52    C3  1  0.371950214824  0.059170695450
CG3C52     H  1  0.189271432669  0.089736802707
CG3C52    HA  1  0.286869387241  0.062058748940
CG3C52   HB1  1  0.286869387241  0.062058748940
CG3C52   HB2  1  0.288651184677  0.070011711020
CG3C52   HE1  1  0.280633096214  0.073666921749
CG3C52   HE2  1  0.281523994932  0.067464972838
CG3C52    HC  1  0.189271432669  0.089736802707
CG3C52    HP  1  0.290272620344  0.072469005789
CG3C52   HR1  1  0.249451641079  0.089736802707
CG3C52   HR2  1  0.231633666716  0.089736802707
CG3C52   HR3  1  0.300054688270  0.036952087465
CG3C52    HS  1  0.209361198763  0.132309697301
CG3C52   HA1  1  0.288651184677  0.088756043175
CG3C52   HA2  1  0.288651184677  0.077149148019
CG3C52   HA3  1  0.288651184677  0.064818249282
CG3C52     N  1  0.334087019303  0.004184000000
CG3C52   NC2  1  0.334087019303  0.187114168357
CG3C52   NH1  1  0.307360057758  0.187114168357
CG3C52   NH2  1  0.334087019303  0.187114168357
CG3C52   NH3  1  0.334087019303  0.187114168357
CG3C52    NP  1  0.334087019303  0.187114168357
CG3C52   NR1  1  0.334087019303  0.187114168357
CG3C52   NR2  1  0.334087019303  0.187114168357
CG3C52   NR3  1  0.334087019303  0.187114168357
CG3C52    NY  1  0.334087019303  0.187114168357
CG3C52     O  1  0.293996576986  0.144938011577
CG3C52    OB  1  0.293996576986  0.144938011577
CG3C52    OC  1  0.320723538531  0.144938011577
CG3C52   OH1  1  0.326959829558  0.163176000000
CG3C52    OS  1  0.326959829558  0.163176000000
CG3C52     S  1  0.347450500075  0.280671252536
CG3C52    SM  1  0.345223253279  0.257919081884
CG3C52    SS  1  0.365268474438  0.286840588481
CG3C52  HGA1  1  0.288651184677  0.088756043175
CG3C52  HGA2  1  0.288651184677  0.078275472531
CG3C52  HGA3  1  0.288651184677  0.064818249282
CG3C52  HGA4  1  0.280633096214  0.073666921749
CG3C52  HGA5  1  0.281523994932  0.067464972838
CG3C52  HGA6  1  0.286869387241  0.070011711020
CG3C52  HGA7  1  0.285087589805  0.072469005789
CG3C52 HGAAM0  1  0.283305792369  0.070011711020
CG3C52 HGAAM1  1  0.283305792369  0.070011711020
CG3C52 HGAAM2  1  0.281523994932  0.083680000000
CG3C52  HGP1  1  0.189271432669  0.089736802707
CG3C52  HGP2  1  0.189271432669  0.089736802707
CG3C52  HGP3  1  0.209361198763  0.132309697301
CG3C52  HGP4  1  0.189271432669  0.089736802707
CG3C52  HGP5  1  0.231633666716  0.089736802707
CG3C52 HGPAM1  1  0.247224394284  0.039692909190
CG3C52 HGPAM2  1  0.247224394284  0.041840000000
CG3C52 HGPAM3  1  0.246778944925  0.045833423612
CG3C52 HGR51  1  0.290272620344  0.072469005789
CG3C52 HGR52  1  0.249451641079  0.089736802707
CG3C52 HGR53  1  0.231633666716  0.089736802707
CG3C52 HGR61  1  0.290272620344  0.072469005789
CG3C52 HGR62  1  0.267269615442  0.089736802707
CG3C52 HGR63  1  0.249451641079  0.089736802707
CG3C52 HGR71  1  0.290272620344  0.072469005789
CG3C52 HGTIP3  1  0.189271432669  0.089736802707
CG3C52 CG1T1  1  0.333196120584  0.170981810495
CG3C52 CG1T2  1  0.346782326036  0.134409982486
CG3C52 CG1N1  1  0.335868816739  0.177512086349
CG3C52 CG2D1  1  0.355468588538  0.109105371453
CG3C52 CG2D2  1  0.354577689820  0.105847757841
CG3C52 CG2D1O  1  0.355468588538  0.109105371453
CG3C52 CG2D2O  1  0.355468588538  0.109105371453
CG3C52 CG2DC1  1  0.355468588538  0.109105371453
CG3C52 CG2DC2  1  0.355468588538  0.109105371453
CG3C52 CG2DC3  1  0.354577689820  0.105847757841
CG3C52 CG2N1  1  0.347450500075  0.138767581228
CG3C52 CG2N2  1  0.347450500075  0.138767581228
CG3C52 CG2O1  1  0.347450500075  0.138767581228
CG3C52 CG2O2  1  0.320723538531  0.130979917850
CG3C52 CG2O3  1  0.347450500075  0.110698234855
CG3C52 CG2O4  1  0.329632525712  0.102486650838
CG3C52 CG2O5  1  0.347450500075  0.125520000000
CG3C52 CG2O6  1  0.347450500075  0.110698234855
CG3C52 CG2O7  1  0.308518226092  0.100764063435
CG3C52 CG2R51  1  0.356359487256  0.093557084179
CG3C52 CG2R52  1  0.365268474438  0.059170695450
CG3C52 CG2R53  1  0.365268474438  0.059170695450
CG3C52 CG2R57  1  0.356359487256  0.093557084179
CG3C52 CG25C1  1  0.355468588538  0.109105371453
CG3C52 CG25C2  1  0.355468588538  0.109105371453
CG3C52 CG251O  1  0.355468588538  0.109105371453
CG3C52 CG252O  1  0.355468588538  0.109105371453
CG3C52 CG2R61  1  0.346773417049  0.110698234855
CG3C52 CG2R62  1  0.338541512893  0.125520000000
CG3C52 CG2R63  1  0.338541512893  0.132309697301
CG3C52 CG2R64  1  0.356359487256  0.083680000000
CG3C52 CG2R66  1  0.338541512893  0.110698234855
CG3C52 CG2R67  1  0.346773417049  0.110698234855
CG3C52 CG2RC0  1  0.334977918021  0.131646486622
CG3C52 CG2R71  1  0.346987232741  0.108300154755
CG3C52 CG2RC7  1  0.334977918021  0.131646486622
CG3C52 CG301  1  0.338541512893  0.041840000000
CG3C52 CG302  1  0.374177461619  0.059170695450
CG3C52 CG311  1  0.338541512893  0.041840000000
CG3C52 CG312  1  0.351904993665  0.085746484010
CG3C52 CG314  1  0.338541512893  0.041840000000
CG3C52 CG321  1  0.338541512893  0.041840000000
CG3C52 CG322  1  0.338541512893  0.102486650838
CG3C52 CG323  1  0.365268474438  0.138767581228
CG3C52 CG324  1  0.338541512893  0.041840000000
CG3C52 CG331  1  0.338541512893  0.041840000000
CG3C52 CG334  1  0.338541512893  0.041840000000
CG3C52 CG3C50  1  0.338541512893  0.041840000000
CG3C52 CG3C51  1  0.338541512893  0.041840000000
CG3C52 CG3C52  1  0.338541512893  0.041840000000
CG3C52 CG3C53  1  0.338541512893  0.041840000000
CG3C52 CG3C54  1  0.338541512893  0.041840000000
CG3C52 CG3C31  1  0.338541512893  0.041840000000
CG3C52 CG3C41  1  0.338541512893  0.041840000000
CG3C52 CG3RC1  1  0.338541512893  0.041840000000
CG3C52 CG3AM0  1  0.344777803920  0.110698234855
CG3C52 CG3AM1  1  0.345668702638  0.116852760686
CG3C52 CG3AM2  1  0.346559601357  0.118341390899
CG3C52 NG1T1  1  0.328741626994  0.177512086349
CG3C52 NG2D1  1  0.334087019303  0.187114168357
CG3C52 NG2S0  1  0.334087019303  0.004184000000
CG3C52 NG2S1  1  0.307360057758  0.187114168357
CG3C52 NG2S2  1  0.334087019303  0.187114168357
CG3C52 NG2S3  1  0.334087019303  0.187114168357
CG3C52 NG2O1  1  0.334087019303  0.187114168357
CG3C52 NG2P1  1  0.334087019303  0.187114168357
CG3C52 NG2R43  1  0.334087019303  0.187114168357
CG3C52 NG2R50  1  0.334087019303  0.187114168357
CG3C52 NG2R51  1  0.334087019303  0.187114168357
CG3C52 NG2R52  1  0.334087019303  0.187114168357
CG3C52 NG2R53  1  0.334087019303  0.187114168357
CG3C52 NG2R57  1  0.334087019303  0.187114168357
CG3C52 NG2R60  1  0.337650614175  0.102486650838
CG3C52 NG2R61  1  0.334087019303  0.187114168357
CG3C52 NG2R62  1  0.352795892384  0.093557084179
CG3C52 NG2R67  1  0.334087019303  0.187114168357
CG3C52 NG2RC0  1  0.334087019303  0.187114168357
CG3C52 NG301  1  0.347450500075  0.078275472531
CG3C52 NG311  1  0.347450500075  0.088756043175
CG3C52 NG321  1  0.346559601357  0.102486650838
CG3C52 NG331  1  0.345668702638  0.110698234855
CG3C52 NG3C51  1  0.334087019303  0.187114168357
CG3C52 NG3N1  1  0.351904993665  0.102486650838
CG3C52 NG3P0  1  0.334087019303  0.187114168357
CG3C52 NG3P1  1  0.334087019303  0.187114168357
CG3C52 NG3P2  1  0.334087019303  0.187114168357
CG3C52 NG3P3  1  0.334087019303  0.187114168357
CG3C52 OG2D1  1  0.293996576986  0.144938011577
CG3C52 OG2D2  1  0.320723538531  0.144938011577
CG3C52 OG2D3  1  0.293996576986  0.144938011577
CG3C52 OG2D4  1  0.320723538531  0.144938011577
CG3C52 OG2D5  1  0.320010819556  0.169954883425
CG3C52 OG2N1  1  0.320723538531  0.144938011577
CG3C52 OG2P1  1  0.320723538531  0.144938011577
CG3C52 OG2R50  1  0.320723538531  0.144938011577
CG3C52 OG3R60  1  0.316269044940  0.132309697301
CG3C52 OG301  1  0.316269044940  0.132309697301
CG3C52 OG302  1  0.316269044940  0.132309697301
CG3C52 OG303  1  0.316269044940  0.132309697301
CG3C52 OG304  1  0.316269044940  0.132309697301
CG3C52 OG311  1  0.326514380198  0.183381431383
CG3C52 OG312  1  0.325178032121  0.144938011577
CG3C52 OG3C31  1  0.316269044940  0.132309697301
CG3C52 OG3C51  1  0.316269044940  0.132309697301
CG3C52 OG3C61  1  0.316269044940  0.132309697301
CG3C52 OGTIP3  1  0.326799467788  0.163176000000
CG3C52 SG2D1  1  0.351904993665  0.314496560236
CG3C52 SG2R50  1  0.347450500075  0.280671252536
CG3C52 SG311  1  0.347450500075  0.280671252536
CG3C52 SG301  1  0.345223253279  0.257919081884
CG3C52 SG302  1  0.365268474438  0.286840588481
CG3C52 SG3O1  1  0.356359487256  0.286840588481
CG3C52 SG3O2  1  0.347450500075  0.247528778125
CG3C52 SG3O3  1  0.347450500075  0.247528778125
CG3C52  FGA1  1  0.314487247504  0.153729976257
CG3C52  FGA2  1  0.314487247504  0.135577095411
CG3C52  FGA3  1  0.311814551349  0.130309939452
CG3C52  FGP1  1  0.311814551349  0.130309939452
CG3C52  FGR1  1  0.320723538531  0.144938011577
CG3C52 CLGA1  1  0.339432411611  0.245040988571
CG3C52 CLGA3  1  0.339432411611  0.232955260941
CG3C52 BRGA1  1  0.344777803920  0.289876023155
CG3C52 BRGA2  1  0.351904993665  0.304599797767
CG3C52 BRGA3  1  0.347450500075  0.307459952514
CG3C52   SOD  1  0.294954293108  0.090610410351
CG3C52   CLA  1  0.371504765465  0.162045623205
CG3C52   PG0  1  0.360813980847  0.320014464673
CG3C52   PG1  1  0.360813980847  0.320014464673
CG3C52   PG2  1  0.360813980847  0.320014464673
CG3C52  ALG1  1  0.347450500075  0.337324864189
CG3C52   LPH  1  0.169270756447  0.000000000000
CG3C52 CLGR1  1  0.334977918021  0.200657590935
CG3C52 BRGR1  1  0.345668702638  0.236682781799
CG3C52  IGR1  1  0.368832069310  0.301712530731
CG3C52 SG2P1  1  0.355798221064  0.332305491450
CG3C52 OG2S1  1  0.318906105146  0.157831660601
CG3C52 SG2P2  1  0.352314807076  0.329421919951
CG3C52 SEGD1  1  0.363041227642  0.330244580395
CG3C52 BG201  1  0.396449929572  0.081561175077
CG3C52 CC301  1  0.338541512893  0.041840000000
CG3C52 CC3062  1  0.338541512893  0.041840000000
CG3C52 CC311  1  0.338541512893  0.041840000000
CG3C52 CC3161  1  0.338541512893  0.041840000000
CG3C52 CC3162  1  0.338541512893  0.041840000000
CG3C52 CC3163  1  0.338541512893  0.041840000000
CG3C52 CC321  1  0.338541512893  0.041840000000
CG3C52 CC3261  1  0.338541512893  0.041840000000
CG3C52 CC3263  1  0.338541512893  0.041840000000
CG3C52 CC331  1  0.338541512893  0.041840000000
CG3C52 CC2O1  1  0.347450500075  0.138767581228
CG3C52 CC2O2  1  0.347450500075  0.110698234855
CG3C52 CC2O3  1  0.347450500075  0.125520000000
CG3C52 CC2O4  1  0.329632525712  0.102486650838
CG3C52 CC2O5  1  0.320723538531  0.130979917850
CG3C52 OC2D1  1  0.293996576986  0.144938011577
CG3C52 OC2D2  1  0.320723538531  0.144938011577
CG3C52 OC2D3  1  0.293996576986  0.144938011577
CG3C52 OC2D4  1  0.293996576986  0.144938011577
CG3C52 OC3C61  1  0.316269044940  0.132309697301
CG3C52 OC311  1  0.326514380198  0.183381431383
CG3C52 NC2D1  1  0.307360057758  0.187114168357
CG3C52  HCP1  1  0.189271432669  0.089736802707
CG3C52  HCA1  1  0.288651184677  0.088756043175
CG3C52  HCA2  1  0.288651184677  0.078275472531
CG3C52  HCA3  1  0.288651184677  0.064818249282
CG3C52 CC312  1  0.338541512893  0.041840000000
CG3C52 CC322  1  0.338541512893  0.041840000000
CG3C52  HCR1  1  0.240542653898  0.089736802707
CG3C52 HCA3M  1  0.288651184677  0.064818249282
CG3C52 CC321C  1  0.338541512893  0.041840000000
CG3C52 CC321D  1  0.338541512893  0.041840000000
CG3C52 CC311C  1  0.338541512893  0.041840000000
CG3C52 CC311D  1  0.338541512893  0.041840000000
CG3C52 OC301  1  0.316269044940  0.132309697301
CG3C52 OC302  1  0.316269044940  0.132309697301
CG3C52 HCP1M  1  0.189271432669  0.089736802707
CG3C52 OC311M  1  0.326514380198  0.183381431383
CG3C52 OC3C5M  1  0.316269044940  0.132309697301
CG3C52 CC322C  1  0.338541512893  0.041840000000
CG3C52 HCA2C2  1  0.285087589805  0.078275472531
CG3C52 CC312C  1  0.338541512893  0.041840000000
CG3C52 HCA1C2  1  0.288651184677  0.088756043175
CG3C52 OC3C51  1  0.316269044940  0.132309697301
CG3C52 CC3152  1  0.338541512893  0.041840000000
CG3C52 CC3051  1  0.338541512893  0.041840000000
CG3C52 CC3251  1  0.338541512893  0.041840000000
CG3C52 CC3151  1  0.338541512893  0.041840000000
CG3C52 CC3153  1  0.338541512893  0.041840000000
CG3C52 OC2DP  1  0.320723538531  0.144938011577
CG3C52 OC312  1  0.326959829558  0.163176000000
CG3C52 OC30P  1  0.326959829558  0.163176000000
CG3C52    PC  1  0.360813980847  0.320014464673
CG3C52    SC  1  0.356359487256  0.286840588481
CG3C52 CC312D  1  0.338541512893  0.041840000000
CG3C52 OC303  1  0.316269044940  0.132309697301
CG3C52 NC311  1  0.347450500075  0.088756043175
CG3C52   HN1  1  0.189271432669  0.089736802707
CG3C52   HN2  1  0.189271432669  0.089736802707
CG3C52   HN3  1  0.267269615442  0.089736802707
CG3C52   HN4  1  0.189271432669  0.089736802707
CG3C52   HN5  1  0.189271432669  0.089736802707
CG3C52   HN6  1  0.286869387241  0.062058748940
CG3C52   HN7  1  0.286869387241  0.062058748940
CG3C52   HN8  1  0.288651184677  0.070011711020
CG3C52   HN9  1  0.288651184677  0.064818249282
CG3C52   NN1  1  0.334087019303  0.187114168357
CG3C52   NN2  1  0.334087019303  0.187114168357
CG3C52  NN2B  1  0.334087019303  0.187114168357
CG3C52  NN2G  1  0.334087019303  0.187114168357
CG3C52  NN2U  1  0.334087019303  0.187114168357
CG3C52   NN3  1  0.334087019303  0.187114168357
CG3C52  NN3A  1  0.334087019303  0.187114168357
CG3C52  NN3G  1  0.334087019303  0.187114168357
CG3C52   NN4  1  0.334087019303  0.187114168357
CG3C52   NN6  1  0.334087019303  0.187114168357
CG3C52   ON1  1  0.320723538531  0.144938011577
CG3C52  ON1C  1  0.320723538531  0.144938011577
CG3C52   ON2  1  0.326959829558  0.163176000000
CG3C52   ON3  1  0.320723538531  0.144938011577
CG3C52   ON4  1  0.326959829558  0.163176000000
CG3C52   ON5  1  0.326959829558  0.163176000000
CG3C52   ON6  1  0.326959829558  0.163176000000
CG3C52  ON6B  1  0.326959829558  0.163176000000
CG3C52   CN1  1  0.338541512893  0.132309697301
CG3C52  CN1T  1  0.338541512893  0.132309697301
CG3C52   CN2  1  0.338541512893  0.132309697301
CG3C52   CN3  1  0.338541512893  0.125520000000
CG3C52  CN3T  1  0.338541512893  0.125520000000
CG3C52   CN4  1  0.338541512893  0.114583559030
CG3C52   CN5  1  0.338541512893  0.114583559030
CG3C52  CN5G  1  0.338541512893  0.114583559030
CG3C52   CN7  1  0.338541512893  0.041840000000
CG3C52  CN7B  1  0.338541512893  0.041840000000
CG3C52   CN8  1  0.338541512893  0.041840000000
CG3C52  CN8B  1  0.338541512893  0.041840000000
CG3C52   CN9  1  0.338541512893  0.041840000000
CG3C52     P  1  0.360813980847  0.320014464673
CG3C52    P2  1  0.360813980847  0.320014464673
CG3C52    P3  1  0.360813980847  0.320014464673
CG3C52    P4  1  0.360813980847  0.320014464673
CG3C52   HOL  1  0.189271432669  0.089736802707
CG3C52  HAL1  1  0.286869387241  0.062058748940
CG3C52  HAL2  1  0.288651184677  0.070011711020
CG3C52  HAL3  1  0.288651184677  0.064818249282
CG3C52   HBL  1  0.286869387241  0.062058748940
CG3C52   HCL  1  0.189271432669  0.089736802707
CG3C52    HL  1  0.231633666716  0.089736802707
CG3C52  HEL1  1  0.280633096214  0.073666921749
CG3C52  HEL2  1  0.281523994932  0.067464972838
CG3C52    CL  1  0.347450500075  0.110698234855
CG3C52   CCL  1  0.347450500075  0.110698234855
CG3C52  CTL1  1  0.338541512893  0.041840000000
CG3C52  CTL2  1  0.338541512893  0.041840000000
CG3C52  CTL3  1  0.338541512893  0.041840000000
CG3C52  CTL5  1  0.338541512893  0.041840000000
CG3C52  CEL1  1  0.355468588538  0.109105371453
CG3C52  CEL2  1  0.354577689820  0.105847757841
CG3C52  CRL1  1  0.338541512893  0.041840000000
CG3C52  CRL2  1  0.338541512893  0.041840000000
CG3C52   OBL  1  0.293996576986  0.144938011577
CG3C52   OCL  1  0.320723538531  0.144938011577
CG3C52   O2L  1  0.320723538531  0.144938011577
CG3C52   OHL  1  0.326959829558  0.163176000000
CG3C52   OSL  1  0.316269044940  0.132309697301
CG3C52  OSLP  1  0.316269044940  0.132309697301
CG3C52  NH3L  1  0.334087019303  0.187114168357
CG3C52   NTL  1  0.334087019303  0.187114168357
CG3C52    SL  1  0.356359487256  0.286840588481
CG3C52    PL  1  0.360813980847  0.320014464673
CG3C52 HCA1A  1  0.288651184677  0.088756043175
CG3C52 HCA2A  1  0.288651184677  0.078275472531
CG3C52 HCA3A  1  0.288651184677  0.064818249282
CG3C52 CC30A  1  0.338541512893  0.041840000000
CG3C52 CC31A  1  0.338541512893  0.041840000000
CG3C52 CC32A  1  0.338541512893  0.041840000000
CG3C52 CC33A  1  0.338541512893  0.041840000000
CG3C52 CC326A  1  0.338541512893  0.041840000000
CG3C52 HCA25A  1  0.285087589805  0.078275472531
CG3C52 CC325A  1  0.338541512893  0.041840000000
CG3C52 CC325B  1  0.338541512893  0.041840000000
CG3C52 OC305A  1  0.316269044940  0.132309697301
CG3C52 OC30A  1  0.316269044940  0.132309697301
CG3C52  HSIO  1  0.189271432669  0.089736802707
CG3C52  HSIA  1  0.286869387241  0.062058748940
CG3C52   HAL  1  0.286869387241  0.062058748940
CG3C52    AL  1  0.365268474438  0.337324864189
CG3C52    SI  1  0.365268474438  0.324091246411
CG3C52  SIH3  1  0.365268474438  0.324091246411
CG3C52  OSIH  1  0.326959829558  0.163176000000
CG3C52  OSIE  1  0.326959829558  0.163176000000
CG3C52  OSIA  1  0.326959829558  0.163176000000
CG3C52   OAL  1  0.326959829558  0.163176000000
CG3C52    HT  1  0.189271432669  0.089736802707
CG3C52    OT  1  0.326799467788  0.163176000000
CG3C52   DUM  1  0.169270756447  0.000000000000
CG3C52    CM  1  0.356359487256  0.138767581228
CG3C52   CPA  1  0.329632525712  0.125520000000
CG3C52   CPB  1  0.329632525712  0.125520000000
CG3C52   CPM  1  0.329632525712  0.125520000000
CG3C52   CST  1  0.308518226092  0.100764063435
CG3C52  CT1X  1  0.338541512893  0.041840000000
CG3C52  CT2X  1  0.338541512893  0.041840000000
CG3C52  CT3X  1  0.338541512893  0.041840000000
CG3C52    HB  1  0.286869387241  0.062058748940
CG3C52   NPH  1  0.334087019303  0.187114168357
CG3C52    OM  1  0.320723538531  0.144938011577
CG3C52   OST  1  0.320010819556  0.169954883425
CG3C52   POT  1  0.326403017859  0.123410269913
CG3C52   CAL  1  0.291056611216  0.144938011577
CG3C52    MG  1  0.274842254546  0.051243325419
CG3C52   CES  1  0.356359487256  0.182376331798
CG3C52    ZN  1  0.266378716724  0.209200000000
CG3C52    FE  1  0.227179173126  0.000000000000
CG3C52    HE  1  0.301123766731  0.061020452073
CG3C52    NE  1  0.305578260322  0.122698965603
CG3C52  CLAL  1  0.339272049842  0.072469005789
CG3C52    AG  1  0.300901042052  0.893457908130
CG3C52    AU  1  0.300722862308  0.962320000000
CG3C52    CU  1  0.285800308779  0.908997471504
CG3C52    NI  1  0.282949432881  0.994525446633
CG3C52    PB  1  0.328073452955  0.716185437439
CG3C52    PD  1  0.294842930769  1.037598257516
CG3C52    PT  1  0.296001099102  1.168527606863
CG3C52   CAP  1  0.346773417049  0.110698234855
CG3C52    FA  1  0.320723538531  0.144938011577
CG3C52    CN  1  0.325178032121  0.187114168357
CG3C52    NC  1  0.334087019303  0.324091246411
CG3C52   OCA  1  0.293996576986  0.144938011577
CG3C52   COA  1  0.347450500075  0.138767581228
CG3C52   CF1  1  0.338541512893  0.102486650838
CG3C52   CF2  1  0.351904993665  0.085746484010
CG3C52   CF3  1  0.374177461619  0.059170695450
CG3C52   HF1  1  0.286869387241  0.070011711020
CG3C52   HF2  1  0.285087589805  0.072469005789
CG3C52    F1  1  0.314487247504  0.153729976257
CG3C52    F2  1  0.314487247504  0.135577095411
CG3C52    F3  1  0.311814551349  0.130309939452
CG3C52    OX  1  0.320723538531  0.144938011577
CG3C52    HX  1  0.189271432669  0.089736802707
CG3C52  HPER  1  0.189271432669  0.089736802707
CG3C52  OPER  1  0.318427692534  0.188901923946
CG3C52   LIT  1  0.284864865125  0.020196198771
CG3C52   RUB  1  0.338541512893  0.162045623205
CG3C52   BAR  1  0.337650614175  0.162045623205
CG3C52   CAD  1  0.290165712498  0.144938011577
CG3C52  ON2B  1  0.326959829558  0.163176000000
CG3C52    SP  1  0.365268474438  0.280671252536
CG3C52   HNP  1  0.290272620344  0.072469005789
CG3C52  HNE1  1  0.280633096214  0.073666921749
CG3C52  HNE2  1  0.281523994932  0.067464972838
CG3C52  CN3D  1  0.338541512893  0.125520000000
CG3C52  CNE1  1  0.355468588538  0.109105371453
CG3C52  CNE2  1  0.354577689820  0.105847757841
CG3C52   CNA  1  0.346773417049  0.110698234855
CG3C52  CNA2  1  0.338541512893  0.110698234855
CG3C52   CNG  1  0.347450500075  0.138767581228
CG3C52  NN1C  1  0.334087019303  0.187114168357
CG3C52  NN2C  1  0.334087019303  0.187114168357
CG3C52  NN3I  1  0.334087019303  0.187114168357
CG3C52   NNG  1  0.334087019303  0.187114168357
CG3C52   FNA  1  0.320723538531  0.144938011577
CG3C52  ON2M  1  0.316269044940  0.132309697301
CG3C52   CN6  1  0.338541512893  0.041840000000
CG3C52  CN7E  1  0.338541512893  0.041840000000
CG3C52  CT2P  1  0.338541512893  0.041840000000
CG3C52  CTD1  1  0.338541512893  0.041840000000
CG3C52  CPD1  1  0.338541512893  0.041840000000
CG3C52  CC1A  1  0.355468588538  0.109105371453
CG3C52  CC1B  1  0.355468588538  0.109105371453
CG3C52   CC2  1  0.354577689820  0.105847757841
CG3C52   NS1  1  0.334087019303  0.187114168357
CG3C52   NS2  1  0.334087019303  0.187114168357
CG3C52   NHL  1  0.307360057758  0.187114168357
CG3C52  CTO1  1  0.338541512893  0.041840000000
CG3C52  CEL3  1  0.355468588538  0.109105371453
CG3C52  CTO2  1  0.338541512893  0.041840000000
CG3C52  HN3B  1  0.249451641079  0.089736802707
CG3C52  CN1A  1  0.347450500075  0.110698234855
CG3C52  CN3A  1  0.329632525712  0.177512086349
CG3C52  CN3B  1  0.329632525712  0.177512086349
CG3C52  CN3C  1  0.329632525712  0.177512086349
CG3C53     C  1  0.347450500075  0.138767581228
CG3C53    CA  1  0.346773417049  0.110698234855
CG3C53    CC  1  0.347450500075  0.110698234855
CG3C53    CD  1  0.347450500075  0.110698234855
CG3C53   CE1  1  0.355468588538  0.109105371453
CG3C53   CE2  1  0.354577689820  0.105847757841
CG3C53   CP1  1  0.338541512893  0.041840000000
CG3C53   CP2  1  0.338541512893  0.041840000000
CG3C53   CP3  1  0.338541512893  0.041840000000
CG3C53  CPH1  1  0.329632525712  0.093557084179
CG3C53  CPH2  1  0.329632525712  0.093557084179
CG3C53    CS  1  0.365268474438  0.138767581228
CG3C53   CPT  1  0.334977918021  0.131646486622
CG3C53    CY  1  0.346559601357  0.113045454929
CG3C53   CAI  1  0.346559601357  0.113045454929
CG3C53    CT  1  0.338541512893  0.041840000000
CG3C53   CT1  1  0.338541512893  0.041840000000
CG3C53   CT2  1  0.338541512893  0.041840000000
CG3C53  CT2A  1  0.338541512893  0.041840000000
CG3C53   CT3  1  0.338541512893  0.041840000000
CG3C53    C3  1  0.371950214824  0.059170695450
CG3C53     H  1  0.189271432669  0.089736802707
CG3C53    HA  1  0.286869387241  0.062058748940
CG3C53   HB1  1  0.286869387241  0.062058748940
CG3C53   HB2  1  0.288651184677  0.070011711020
CG3C53   HE1  1  0.280633096214  0.073666921749
CG3C53   HE2  1  0.281523994932  0.067464972838
CG3C53    HC  1  0.189271432669  0.089736802707
CG3C53    HP  1  0.290272620344  0.072469005789
CG3C53   HR1  1  0.249451641079  0.089736802707
CG3C53   HR2  1  0.231633666716  0.089736802707
CG3C53   HR3  1  0.300054688270  0.036952087465
CG3C53    HS  1  0.209361198763  0.132309697301
CG3C53   HA1  1  0.288651184677  0.088756043175
CG3C53   HA2  1  0.288651184677  0.077149148019
CG3C53   HA3  1  0.288651184677  0.064818249282
CG3C53     N  1  0.334087019303  0.004184000000
CG3C53   NC2  1  0.334087019303  0.187114168357
CG3C53   NH1  1  0.307360057758  0.187114168357
CG3C53   NH2  1  0.334087019303  0.187114168357
CG3C53   NH3  1  0.334087019303  0.187114168357
CG3C53    NP  1  0.334087019303  0.187114168357
CG3C53   NR1  1  0.334087019303  0.187114168357
CG3C53   NR2  1  0.334087019303  0.187114168357
CG3C53   NR3  1  0.334087019303  0.187114168357
CG3C53    NY  1  0.334087019303  0.187114168357
CG3C53     O  1  0.293996576986  0.144938011577
CG3C53    OB  1  0.293996576986  0.144938011577
CG3C53    OC  1  0.320723538531  0.144938011577
CG3C53   OH1  1  0.326959829558  0.163176000000
CG3C53    OS  1  0.326959829558  0.163176000000
CG3C53     S  1  0.347450500075  0.280671252536
CG3C53    SM  1  0.345223253279  0.257919081884
CG3C53    SS  1  0.365268474438  0.286840588481
CG3C53  HGA1  1  0.288651184677  0.088756043175
CG3C53  HGA2  1  0.288651184677  0.078275472531
CG3C53  HGA3  1  0.288651184677  0.064818249282
CG3C53  HGA4  1  0.280633096214  0.073666921749
CG3C53  HGA5  1  0.281523994932  0.067464972838
CG3C53  HGA6  1  0.286869387241  0.070011711020
CG3C53  HGA7  1  0.285087589805  0.072469005789
CG3C53 HGAAM0  1  0.283305792369  0.070011711020
CG3C53 HGAAM1  1  0.283305792369  0.070011711020
CG3C53 HGAAM2  1  0.281523994932  0.083680000000
CG3C53  HGP1  1  0.189271432669  0.089736802707
CG3C53  HGP2  1  0.189271432669  0.089736802707
CG3C53  HGP3  1  0.209361198763  0.132309697301
CG3C53  HGP4  1  0.189271432669  0.089736802707
CG3C53  HGP5  1  0.231633666716  0.089736802707
CG3C53 HGPAM1  1  0.247224394284  0.039692909190
CG3C53 HGPAM2  1  0.247224394284  0.041840000000
CG3C53 HGPAM3  1  0.246778944925  0.045833423612
CG3C53 HGR51  1  0.290272620344  0.072469005789
CG3C53 HGR52  1  0.249451641079  0.089736802707
CG3C53 HGR53  1  0.231633666716  0.089736802707
CG3C53 HGR61  1  0.290272620344  0.072469005789
CG3C53 HGR62  1  0.267269615442  0.089736802707
CG3C53 HGR63  1  0.249451641079  0.089736802707
CG3C53 HGR71  1  0.290272620344  0.072469005789
CG3C53 HGTIP3  1  0.189271432669  0.089736802707
CG3C53 CG1T1  1  0.333196120584  0.170981810495
CG3C53 CG1T2  1  0.346782326036  0.134409982486
CG3C53 CG1N1  1  0.335868816739  0.177512086349
CG3C53 CG2D1  1  0.355468588538  0.109105371453
CG3C53 CG2D2  1  0.354577689820  0.105847757841
CG3C53 CG2D1O  1  0.355468588538  0.109105371453
CG3C53 CG2D2O  1  0.355468588538  0.109105371453
CG3C53 CG2DC1  1  0.355468588538  0.109105371453
CG3C53 CG2DC2  1  0.355468588538  0.109105371453
CG3C53 CG2DC3  1  0.354577689820  0.105847757841
CG3C53 CG2N1  1  0.347450500075  0.138767581228
CG3C53 CG2N2  1  0.347450500075  0.138767581228
CG3C53 CG2O1  1  0.347450500075  0.138767581228
CG3C53 CG2O2  1  0.320723538531  0.130979917850
CG3C53 CG2O3  1  0.347450500075  0.110698234855
CG3C53 CG2O4  1  0.329632525712  0.102486650838
CG3C53 CG2O5  1  0.347450500075  0.125520000000
CG3C53 CG2O6  1  0.347450500075  0.110698234855
CG3C53 CG2O7  1  0.308518226092  0.100764063435
CG3C53 CG2R51  1  0.356359487256  0.093557084179
CG3C53 CG2R52  1  0.365268474438  0.059170695450
CG3C53 CG2R53  1  0.365268474438  0.059170695450
CG3C53 CG2R57  1  0.356359487256  0.093557084179
CG3C53 CG25C1  1  0.355468588538  0.109105371453
CG3C53 CG25C2  1  0.355468588538  0.109105371453
CG3C53 CG251O  1  0.355468588538  0.109105371453
CG3C53 CG252O  1  0.355468588538  0.109105371453
CG3C53 CG2R61  1  0.346773417049  0.110698234855
CG3C53 CG2R62  1  0.338541512893  0.125520000000
CG3C53 CG2R63  1  0.338541512893  0.132309697301
CG3C53 CG2R64  1  0.356359487256  0.083680000000
CG3C53 CG2R66  1  0.338541512893  0.110698234855
CG3C53 CG2R67  1  0.346773417049  0.110698234855
CG3C53 CG2RC0  1  0.334977918021  0.131646486622
CG3C53 CG2R71  1  0.346987232741  0.108300154755
CG3C53 CG2RC7  1  0.334977918021  0.131646486622
CG3C53 CG301  1  0.338541512893  0.041840000000
CG3C53 CG302  1  0.374177461619  0.059170695450
CG3C53 CG311  1  0.338541512893  0.041840000000
CG3C53 CG312  1  0.351904993665  0.085746484010
CG3C53 CG314  1  0.338541512893  0.041840000000
CG3C53 CG321  1  0.338541512893  0.041840000000
CG3C53 CG322  1  0.338541512893  0.102486650838
CG3C53 CG323  1  0.365268474438  0.138767581228
CG3C53 CG324  1  0.338541512893  0.041840000000
CG3C53 CG331  1  0.338541512893  0.041840000000
CG3C53 CG334  1  0.338541512893  0.041840000000
CG3C53 CG3C50  1  0.338541512893  0.041840000000
CG3C53 CG3C51  1  0.338541512893  0.041840000000
CG3C53 CG3C52  1  0.338541512893  0.041840000000
CG3C53 CG3C53  1  0.338541512893  0.041840000000
CG3C53 CG3C54  1  0.338541512893  0.041840000000
CG3C53 CG3C31  1  0.338541512893  0.041840000000
CG3C53 CG3C41  1  0.338541512893  0.041840000000
CG3C53 CG3RC1  1  0.338541512893  0.041840000000
CG3C53 CG3AM0  1  0.344777803920  0.110698234855
CG3C53 CG3AM1  1  0.345668702638  0.116852760686
CG3C53 CG3AM2  1  0.346559601357  0.118341390899
CG3C53 NG1T1  1  0.328741626994  0.177512086349
CG3C53 NG2D1  1  0.334087019303  0.187114168357
CG3C53 NG2S0  1  0.334087019303  0.004184000000
CG3C53 NG2S1  1  0.307360057758  0.187114168357
CG3C53 NG2S2  1  0.334087019303  0.187114168357
CG3C53 NG2S3  1  0.334087019303  0.187114168357
CG3C53 NG2O1  1  0.334087019303  0.187114168357
CG3C53 NG2P1  1  0.334087019303  0.187114168357
CG3C53 NG2R43  1  0.334087019303  0.187114168357
CG3C53 NG2R50  1  0.334087019303  0.187114168357
CG3C53 NG2R51  1  0.334087019303  0.187114168357
CG3C53 NG2R52  1  0.334087019303  0.187114168357
CG3C53 NG2R53  1  0.334087019303  0.187114168357
CG3C53 NG2R57  1  0.334087019303  0.187114168357
CG3C53 NG2R60  1  0.337650614175  0.102486650838
CG3C53 NG2R61  1  0.334087019303  0.187114168357
CG3C53 NG2R62  1  0.352795892384  0.093557084179
CG3C53 NG2R67  1  0.334087019303  0.187114168357
CG3C53 NG2RC0  1  0.334087019303  0.187114168357
CG3C53 NG301  1  0.347450500075  0.078275472531
CG3C53 NG311  1  0.347450500075  0.088756043175
CG3C53 NG321  1  0.346559601357  0.102486650838
CG3C53 NG331  1  0.345668702638  0.110698234855
CG3C53 NG3C51  1  0.334087019303  0.187114168357
CG3C53 NG3N1  1  0.351904993665  0.102486650838
CG3C53 NG3P0  1  0.334087019303  0.187114168357
CG3C53 NG3P1  1  0.334087019303  0.187114168357
CG3C53 NG3P2  1  0.334087019303  0.187114168357
CG3C53 NG3P3  1  0.334087019303  0.187114168357
CG3C53 OG2D1  1  0.293996576986  0.144938011577
CG3C53 OG2D2  1  0.320723538531  0.144938011577
CG3C53 OG2D3  1  0.293996576986  0.144938011577
CG3C53 OG2D4  1  0.320723538531  0.144938011577
CG3C53 OG2D5  1  0.320010819556  0.169954883425
CG3C53 OG2N1  1  0.320723538531  0.144938011577
CG3C53 OG2P1  1  0.320723538531  0.144938011577
CG3C53 OG2R50  1  0.320723538531  0.144938011577
CG3C53 OG3R60  1  0.316269044940  0.132309697301
CG3C53 OG301  1  0.316269044940  0.132309697301
CG3C53 OG302  1  0.316269044940  0.132309697301
CG3C53 OG303  1  0.316269044940  0.132309697301
CG3C53 OG304  1  0.316269044940  0.132309697301
CG3C53 OG311  1  0.326514380198  0.183381431383
CG3C53 OG312  1  0.325178032121  0.144938011577
CG3C53 OG3C31  1  0.316269044940  0.132309697301
CG3C53 OG3C51  1  0.316269044940  0.132309697301
CG3C53 OG3C61  1  0.316269044940  0.132309697301
CG3C53 OGTIP3  1  0.326799467788  0.163176000000
CG3C53 SG2D1  1  0.351904993665  0.314496560236
CG3C53 SG2R50  1  0.347450500075  0.280671252536
CG3C53 SG311  1  0.347450500075  0.280671252536
CG3C53 SG301  1  0.345223253279  0.257919081884
CG3C53 SG302  1  0.365268474438  0.286840588481
CG3C53 SG3O1  1  0.356359487256  0.286840588481
CG3C53 SG3O2  1  0.347450500075  0.247528778125
CG3C53 SG3O3  1  0.347450500075  0.247528778125
CG3C53  FGA1  1  0.314487247504  0.153729976257
CG3C53  FGA2  1  0.314487247504  0.135577095411
CG3C53  FGA3  1  0.311814551349  0.130309939452
CG3C53  FGP1  1  0.311814551349  0.130309939452
CG3C53  FGR1  1  0.320723538531  0.144938011577
CG3C53 CLGA1  1  0.339432411611  0.245040988571
CG3C53 CLGA3  1  0.339432411611  0.232955260941
CG3C53 BRGA1  1  0.344777803920  0.289876023155
CG3C53 BRGA2  1  0.351904993665  0.304599797767
CG3C53 BRGA3  1  0.347450500075  0.307459952514
CG3C53   SOD  1  0.294954293108  0.090610410351
CG3C53   CLA  1  0.371504765465  0.162045623205
CG3C53   PG0  1  0.360813980847  0.320014464673
CG3C53   PG1  1  0.360813980847  0.320014464673
CG3C53   PG2  1  0.360813980847  0.320014464673
CG3C53  ALG1  1  0.347450500075  0.337324864189
CG3C53   LPH  1  0.169270756447  0.000000000000
CG3C53 CLGR1  1  0.334977918021  0.200657590935
CG3C53 BRGR1  1  0.345668702638  0.236682781799
CG3C53  IGR1  1  0.368832069310  0.301712530731
CG3C53 SG2P1  1  0.355798221064  0.332305491450
CG3C53 OG2S1  1  0.318906105146  0.157831660601
CG3C53 SG2P2  1  0.352314807076  0.329421919951
CG3C53 SEGD1  1  0.363041227642  0.330244580395
CG3C53 BG201  1  0.396449929572  0.081561175077
CG3C53 CC301  1  0.338541512893  0.041840000000
CG3C53 CC3062  1  0.338541512893  0.041840000000
CG3C53 CC311  1  0.338541512893  0.041840000000
CG3C53 CC3161  1  0.338541512893  0.041840000000
CG3C53 CC3162  1  0.338541512893  0.041840000000
CG3C53 CC3163  1  0.338541512893  0.041840000000
CG3C53 CC321  1  0.338541512893  0.041840000000
CG3C53 CC3261  1  0.338541512893  0.041840000000
CG3C53 CC3263  1  0.338541512893  0.041840000000
CG3C53 CC331  1  0.338541512893  0.041840000000
CG3C53 CC2O1  1  0.347450500075  0.138767581228
CG3C53 CC2O2  1  0.347450500075  0.110698234855
CG3C53 CC2O3  1  0.347450500075  0.125520000000
CG3C53 CC2O4  1  0.329632525712  0.102486650838
CG3C53 CC2O5  1  0.320723538531  0.130979917850
CG3C53 OC2D1  1  0.293996576986  0.144938011577
CG3C53 OC2D2  1  0.320723538531  0.144938011577
CG3C53 OC2D3  1  0.293996576986  0.144938011577
CG3C53 OC2D4  1  0.293996576986  0.144938011577
CG3C53 OC3C61  1  0.316269044940  0.132309697301
CG3C53 OC311  1  0.326514380198  0.183381431383
CG3C53 NC2D1  1  0.307360057758  0.187114168357
CG3C53  HCP1  1  0.189271432669  0.089736802707
CG3C53  HCA1  1  0.288651184677  0.088756043175
CG3C53  HCA2  1  0.288651184677  0.078275472531
CG3C53  HCA3  1  0.288651184677  0.064818249282
CG3C53 CC312  1  0.338541512893  0.041840000000
CG3C53 CC322  1  0.338541512893  0.041840000000
CG3C53  HCR1  1  0.240542653898  0.089736802707
CG3C53 HCA3M  1  0.288651184677  0.064818249282
CG3C53 CC321C  1  0.338541512893  0.041840000000
CG3C53 CC321D  1  0.338541512893  0.041840000000
CG3C53 CC311C  1  0.338541512893  0.041840000000
CG3C53 CC311D  1  0.338541512893  0.041840000000
CG3C53 OC301  1  0.316269044940  0.132309697301
CG3C53 OC302  1  0.316269044940  0.132309697301
CG3C53 HCP1M  1  0.189271432669  0.089736802707
CG3C53 OC311M  1  0.326514380198  0.183381431383
CG3C53 OC3C5M  1  0.316269044940  0.132309697301
CG3C53 CC322C  1  0.338541512893  0.041840000000
CG3C53 HCA2C2  1  0.285087589805  0.078275472531
CG3C53 CC312C  1  0.338541512893  0.041840000000
CG3C53 HCA1C2  1  0.288651184677  0.088756043175
CG3C53 OC3C51  1  0.316269044940  0.132309697301
CG3C53 CC3152  1  0.338541512893  0.041840000000
CG3C53 CC3051  1  0.338541512893  0.041840000000
CG3C53 CC3251  1  0.338541512893  0.041840000000
CG3C53 CC3151  1  0.338541512893  0.041840000000
CG3C53 CC3153  1  0.338541512893  0.041840000000
CG3C53 OC2DP  1  0.320723538531  0.144938011577
CG3C53 OC312  1  0.326959829558  0.163176000000
CG3C53 OC30P  1  0.326959829558  0.163176000000
CG3C53    PC  1  0.360813980847  0.320014464673
CG3C53    SC  1  0.356359487256  0.286840588481
CG3C53 CC312D  1  0.338541512893  0.041840000000
CG3C53 OC303  1  0.316269044940  0.132309697301
CG3C53 NC311  1  0.347450500075  0.088756043175
CG3C53   HN1  1  0.189271432669  0.089736802707
CG3C53   HN2  1  0.189271432669  0.089736802707
CG3C53   HN3  1  0.267269615442  0.089736802707
CG3C53   HN4  1  0.189271432669  0.089736802707
CG3C53   HN5  1  0.189271432669  0.089736802707
CG3C53   HN6  1  0.286869387241  0.062058748940
CG3C53   HN7  1  0.286869387241  0.062058748940
CG3C53   HN8  1  0.288651184677  0.070011711020
CG3C53   HN9  1  0.288651184677  0.064818249282
CG3C53   NN1  1  0.334087019303  0.187114168357
CG3C53   NN2  1  0.334087019303  0.187114168357
CG3C53  NN2B  1  0.334087019303  0.187114168357
CG3C53  NN2G  1  0.334087019303  0.187114168357
CG3C53  NN2U  1  0.334087019303  0.187114168357
CG3C53   NN3  1  0.334087019303  0.187114168357
CG3C53  NN3A  1  0.334087019303  0.187114168357
CG3C53  NN3G  1  0.334087019303  0.187114168357
CG3C53   NN4  1  0.334087019303  0.187114168357
CG3C53   NN6  1  0.334087019303  0.187114168357
CG3C53   ON1  1  0.320723538531  0.144938011577
CG3C53  ON1C  1  0.320723538531  0.144938011577
CG3C53   ON2  1  0.326959829558  0.163176000000
CG3C53   ON3  1  0.320723538531  0.144938011577
CG3C53   ON4  1  0.326959829558  0.163176000000
CG3C53   ON5  1  0.326959829558  0.163176000000
CG3C53   ON6  1  0.326959829558  0.163176000000
CG3C53  ON6B  1  0.326959829558  0.163176000000
CG3C53   CN1  1  0.338541512893  0.132309697301
CG3C53  CN1T  1  0.338541512893  0.132309697301
CG3C53   CN2  1  0.338541512893  0.132309697301
CG3C53   CN3  1  0.338541512893  0.125520000000
CG3C53  CN3T  1  0.338541512893  0.125520000000
CG3C53   CN4  1  0.338541512893  0.114583559030
CG3C53   CN5  1  0.338541512893  0.114583559030
CG3C53  CN5G  1  0.338541512893  0.114583559030
CG3C53   CN7  1  0.338541512893  0.041840000000
CG3C53  CN7B  1  0.338541512893  0.041840000000
CG3C53   CN8  1  0.338541512893  0.041840000000
CG3C53  CN8B  1  0.338541512893  0.041840000000
CG3C53   CN9  1  0.338541512893  0.041840000000
CG3C53     P  1  0.360813980847  0.320014464673
CG3C53    P2  1  0.360813980847  0.320014464673
CG3C53    P3  1  0.360813980847  0.320014464673
CG3C53    P4  1  0.360813980847  0.320014464673
CG3C53   HOL  1  0.189271432669  0.089736802707
CG3C53  HAL1  1  0.286869387241  0.062058748940
CG3C53  HAL2  1  0.288651184677  0.070011711020
CG3C53  HAL3  1  0.288651184677  0.064818249282
CG3C53   HBL  1  0.286869387241  0.062058748940
CG3C53   HCL  1  0.189271432669  0.089736802707
CG3C53    HL  1  0.231633666716  0.089736802707
CG3C53  HEL1  1  0.280633096214  0.073666921749
CG3C53  HEL2  1  0.281523994932  0.067464972838
CG3C53    CL  1  0.347450500075  0.110698234855
CG3C53   CCL  1  0.347450500075  0.110698234855
CG3C53  CTL1  1  0.338541512893  0.041840000000
CG3C53  CTL2  1  0.338541512893  0.041840000000
CG3C53  CTL3  1  0.338541512893  0.041840000000
CG3C53  CTL5  1  0.338541512893  0.041840000000
CG3C53  CEL1  1  0.355468588538  0.109105371453
CG3C53  CEL2  1  0.354577689820  0.105847757841
CG3C53  CRL1  1  0.338541512893  0.041840000000
CG3C53  CRL2  1  0.338541512893  0.041840000000
CG3C53   OBL  1  0.293996576986  0.144938011577
CG3C53   OCL  1  0.320723538531  0.144938011577
CG3C53   O2L  1  0.320723538531  0.144938011577
CG3C53   OHL  1  0.326959829558  0.163176000000
CG3C53   OSL  1  0.316269044940  0.132309697301
CG3C53  OSLP  1  0.316269044940  0.132309697301
CG3C53  NH3L  1  0.334087019303  0.187114168357
CG3C53   NTL  1  0.334087019303  0.187114168357
CG3C53    SL  1  0.356359487256  0.286840588481
CG3C53    PL  1  0.360813980847  0.320014464673
CG3C53 HCA1A  1  0.288651184677  0.088756043175
CG3C53 HCA2A  1  0.288651184677  0.078275472531
CG3C53 HCA3A  1  0.288651184677  0.064818249282
CG3C53 CC30A  1  0.338541512893  0.041840000000
CG3C53 CC31A  1  0.338541512893  0.041840000000
CG3C53 CC32A  1  0.338541512893  0.041840000000
CG3C53 CC33A  1  0.338541512893  0.041840000000
CG3C53 CC326A  1  0.338541512893  0.041840000000
CG3C53 HCA25A  1  0.285087589805  0.078275472531
CG3C53 CC325A  1  0.338541512893  0.041840000000
CG3C53 CC325B  1  0.338541512893  0.041840000000
CG3C53 OC305A  1  0.316269044940  0.132309697301
CG3C53 OC30A  1  0.316269044940  0.132309697301
CG3C53  HSIO  1  0.189271432669  0.089736802707
CG3C53  HSIA  1  0.286869387241  0.062058748940
CG3C53   HAL  1  0.286869387241  0.062058748940
CG3C53    AL  1  0.365268474438  0.337324864189
CG3C53    SI  1  0.365268474438  0.324091246411
CG3C53  SIH3  1  0.365268474438  0.324091246411
CG3C53  OSIH  1  0.326959829558  0.163176000000
CG3C53  OSIE  1  0.326959829558  0.163176000000
CG3C53  OSIA  1  0.326959829558  0.163176000000
CG3C53   OAL  1  0.326959829558  0.163176000000
CG3C53    HT  1  0.189271432669  0.089736802707
CG3C53    OT  1  0.326799467788  0.163176000000
CG3C53   DUM  1  0.169270756447  0.000000000000
CG3C53    CM  1  0.356359487256  0.138767581228
CG3C53   CPA  1  0.329632525712  0.125520000000
CG3C53   CPB  1  0.329632525712  0.125520000000
CG3C53   CPM  1  0.329632525712  0.125520000000
CG3C53   CST  1  0.308518226092  0.100764063435
CG3C53  CT1X  1  0.338541512893  0.041840000000
CG3C53  CT2X  1  0.338541512893  0.041840000000
CG3C53  CT3X  1  0.338541512893  0.041840000000
CG3C53    HB  1  0.286869387241  0.062058748940
CG3C53   NPH  1  0.334087019303  0.187114168357
CG3C53    OM  1  0.320723538531  0.144938011577
CG3C53   OST  1  0.320010819556  0.169954883425
CG3C53   POT  1  0.326403017859  0.123410269913
CG3C53   CAL  1  0.291056611216  0.144938011577
CG3C53    MG  1  0.274842254546  0.051243325419
CG3C53   CES  1  0.356359487256  0.182376331798
CG3C53    ZN  1  0.266378716724  0.209200000000
CG3C53    FE  1  0.227179173126  0.000000000000
CG3C53    HE  1  0.301123766731  0.061020452073
CG3C53    NE  1  0.305578260322  0.122698965603
CG3C53  CLAL  1  0.339272049842  0.072469005789
CG3C53    AG  1  0.300901042052  0.893457908130
CG3C53    AU  1  0.300722862308  0.962320000000
CG3C53    CU  1  0.285800308779  0.908997471504
CG3C53    NI  1  0.282949432881  0.994525446633
CG3C53    PB  1  0.328073452955  0.716185437439
CG3C53    PD  1  0.294842930769  1.037598257516
CG3C53    PT  1  0.296001099102  1.168527606863
CG3C53   CAP  1  0.346773417049  0.110698234855
CG3C53    FA  1  0.320723538531  0.144938011577
CG3C53    CN  1  0.325178032121  0.187114168357
CG3C53    NC  1  0.334087019303  0.324091246411
CG3C53   OCA  1  0.293996576986  0.144938011577
CG3C53   COA  1  0.347450500075  0.138767581228
CG3C53   CF1  1  0.338541512893  0.102486650838
CG3C53   CF2  1  0.351904993665  0.085746484010
CG3C53   CF3  1  0.374177461619  0.059170695450
CG3C53   HF1  1  0.286869387241  0.070011711020
CG3C53   HF2  1  0.285087589805  0.072469005789
CG3C53    F1  1  0.314487247504  0.153729976257
CG3C53    F2  1  0.314487247504  0.135577095411
CG3C53    F3  1  0.311814551349  0.130309939452
CG3C53    OX  1  0.320723538531  0.144938011577
CG3C53    HX  1  0.189271432669  0.089736802707
CG3C53  HPER  1  0.189271432669  0.089736802707
CG3C53  OPER  1  0.318427692534  0.188901923946
CG3C53   LIT  1  0.284864865125  0.020196198771
CG3C53   RUB  1  0.338541512893  0.162045623205
CG3C53   BAR  1  0.337650614175  0.162045623205
CG3C53   CAD  1  0.290165712498  0.144938011577
CG3C53  ON2B  1  0.326959829558  0.163176000000
CG3C53    SP  1  0.365268474438  0.280671252536
CG3C53   HNP  1  0.290272620344  0.072469005789
CG3C53  HNE1  1  0.280633096214  0.073666921749
CG3C53  HNE2  1  0.281523994932  0.067464972838
CG3C53  CN3D  1  0.338541512893  0.125520000000
CG3C53  CNE1  1  0.355468588538  0.109105371453
CG3C53  CNE2  1  0.354577689820  0.105847757841
CG3C53   CNA  1  0.346773417049  0.110698234855
CG3C53  CNA2  1  0.338541512893  0.110698234855
CG3C53   CNG  1  0.347450500075  0.138767581228
CG3C53  NN1C  1  0.334087019303  0.187114168357
CG3C53  NN2C  1  0.334087019303  0.187114168357
CG3C53  NN3I  1  0.334087019303  0.187114168357
CG3C53   NNG  1  0.334087019303  0.187114168357
CG3C53   FNA  1  0.320723538531  0.144938011577
CG3C53  ON2M  1  0.316269044940  0.132309697301
CG3C53   CN6  1  0.338541512893  0.041840000000
CG3C53  CN7E  1  0.338541512893  0.041840000000
CG3C53  CT2P  1  0.338541512893  0.041840000000
CG3C53  CTD1  1  0.338541512893  0.041840000000
CG3C53  CPD1  1  0.338541512893  0.041840000000
CG3C53  CC1A  1  0.355468588538  0.109105371453
CG3C53  CC1B  1  0.355468588538  0.109105371453
CG3C53   CC2  1  0.354577689820  0.105847757841
CG3C53   NS1  1  0.334087019303  0.187114168357
CG3C53   NS2  1  0.334087019303  0.187114168357
CG3C53   NHL  1  0.307360057758  0.187114168357
CG3C53  CTO1  1  0.338541512893  0.041840000000
CG3C53  CEL3  1  0.355468588538  0.109105371453
CG3C53  CTO2  1  0.338541512893  0.041840000000
CG3C53  HN3B  1  0.249451641079  0.089736802707
CG3C53  CN1A  1  0.347450500075  0.110698234855
CG3C53  CN3A  1  0.329632525712  0.177512086349
CG3C53  CN3B  1  0.329632525712  0.177512086349
CG3C53  CN3C  1  0.329632525712  0.177512086349
CG3C54     C  1  0.347450500075  0.138767581228
CG3C54    CA  1  0.346773417049  0.110698234855
CG3C54    CC  1  0.347450500075  0.110698234855
CG3C54    CD  1  0.347450500075  0.110698234855
CG3C54   CE1  1  0.355468588538  0.109105371453
CG3C54   CE2  1  0.354577689820  0.105847757841
CG3C54   CP1  1  0.338541512893  0.041840000000
CG3C54   CP2  1  0.338541512893  0.041840000000
CG3C54   CP3  1  0.338541512893  0.041840000000
CG3C54  CPH1  1  0.329632525712  0.093557084179
CG3C54  CPH2  1  0.329632525712  0.093557084179
CG3C54    CS  1  0.365268474438  0.138767581228
CG3C54   CPT  1  0.334977918021  0.131646486622
CG3C54    CY  1  0.346559601357  0.113045454929
CG3C54   CAI  1  0.346559601357  0.113045454929
CG3C54    CT  1  0.338541512893  0.041840000000
CG3C54   CT1  1  0.338541512893  0.041840000000
CG3C54   CT2  1  0.338541512893  0.041840000000
CG3C54  CT2A  1  0.338541512893  0.041840000000
CG3C54   CT3  1  0.338541512893  0.041840000000
CG3C54    C3  1  0.371950214824  0.059170695450
CG3C54     H  1  0.189271432669  0.089736802707
CG3C54    HA  1  0.286869387241  0.062058748940
CG3C54   HB1  1  0.286869387241  0.062058748940
CG3C54   HB2  1  0.288651184677  0.070011711020
CG3C54   HE1  1  0.280633096214  0.073666921749
CG3C54   HE2  1  0.281523994932  0.067464972838
CG3C54    HC  1  0.189271432669  0.089736802707
CG3C54    HP  1  0.290272620344  0.072469005789
CG3C54   HR1  1  0.249451641079  0.089736802707
CG3C54   HR2  1  0.231633666716  0.089736802707
CG3C54   HR3  1  0.300054688270  0.036952087465
CG3C54    HS  1  0.209361198763  0.132309697301
CG3C54   HA1  1  0.288651184677  0.088756043175
CG3C54   HA2  1  0.288651184677  0.077149148019
CG3C54   HA3  1  0.288651184677  0.064818249282
CG3C54     N  1  0.334087019303  0.004184000000
CG3C54   NC2  1  0.334087019303  0.187114168357
CG3C54   NH1  1  0.307360057758  0.187114168357
CG3C54   NH2  1  0.334087019303  0.187114168357
CG3C54   NH3  1  0.334087019303  0.187114168357
CG3C54    NP  1  0.334087019303  0.187114168357
CG3C54   NR1  1  0.334087019303  0.187114168357
CG3C54   NR2  1  0.334087019303  0.187114168357
CG3C54   NR3  1  0.334087019303  0.187114168357
CG3C54    NY  1  0.334087019303  0.187114168357
CG3C54     O  1  0.293996576986  0.144938011577
CG3C54    OB  1  0.293996576986  0.144938011577
CG3C54    OC  1  0.320723538531  0.144938011577
CG3C54   OH1  1  0.326959829558  0.163176000000
CG3C54    OS  1  0.326959829558  0.163176000000
CG3C54     S  1  0.347450500075  0.280671252536
CG3C54    SM  1  0.345223253279  0.257919081884
CG3C54    SS  1  0.365268474438  0.286840588481
CG3C54  HGA1  1  0.288651184677  0.088756043175
CG3C54  HGA2  1  0.288651184677  0.078275472531
CG3C54  HGA3  1  0.288651184677  0.064818249282
CG3C54  HGA4  1  0.280633096214  0.073666921749
CG3C54  HGA5  1  0.281523994932  0.067464972838
CG3C54  HGA6  1  0.286869387241  0.070011711020
CG3C54  HGA7  1  0.285087589805  0.072469005789
CG3C54 HGAAM0  1  0.283305792369  0.070011711020
CG3C54 HGAAM1  1  0.283305792369  0.070011711020
CG3C54 HGAAM2  1  0.281523994932  0.083680000000
CG3C54  HGP1  1  0.189271432669  0.089736802707
CG3C54  HGP2  1  0.189271432669  0.089736802707
CG3C54  HGP3  1  0.209361198763  0.132309697301
CG3C54  HGP4  1  0.189271432669  0.089736802707
CG3C54  HGP5  1  0.231633666716  0.089736802707
CG3C54 HGPAM1  1  0.247224394284  0.039692909190
CG3C54 HGPAM2  1  0.247224394284  0.041840000000
CG3C54 HGPAM3  1  0.246778944925  0.045833423612
CG3C54 HGR51  1  0.290272620344  0.072469005789
CG3C54 HGR52  1  0.249451641079  0.089736802707
CG3C54 HGR53  1  0.231633666716  0.089736802707
CG3C54 HGR61  1  0.290272620344  0.072469005789
CG3C54 HGR62  1  0.267269615442  0.089736802707
CG3C54 HGR63  1  0.249451641079  0.089736802707
CG3C54 HGR71  1  0.290272620344  0.072469005789
CG3C54 HGTIP3  1  0.189271432669  0.089736802707
CG3C54 CG1T1  1  0.333196120584  0.170981810495
CG3C54 CG1T2  1  0.346782326036  0.134409982486
CG3C54 CG1N1  1  0.335868816739  0.177512086349
CG3C54 CG2D1  1  0.355468588538  0.109105371453
CG3C54 CG2D2  1  0.354577689820  0.105847757841
CG3C54 CG2D1O  1  0.355468588538  0.109105371453
CG3C54 CG2D2O  1  0.355468588538  0.109105371453
CG3C54 CG2DC1  1  0.355468588538  0.109105371453
CG3C54 CG2DC2  1  0.355468588538  0.109105371453
CG3C54 CG2DC3  1  0.354577689820  0.105847757841
CG3C54 CG2N1  1  0.347450500075  0.138767581228
CG3C54 CG2N2  1  0.347450500075  0.138767581228
CG3C54 CG2O1  1  0.347450500075  0.138767581228
CG3C54 CG2O2  1  0.320723538531  0.130979917850
CG3C54 CG2O3  1  0.347450500075  0.110698234855
CG3C54 CG2O4  1  0.329632525712  0.102486650838
CG3C54 CG2O5  1  0.347450500075  0.125520000000
CG3C54 CG2O6  1  0.347450500075  0.110698234855
CG3C54 CG2O7  1  0.308518226092  0.100764063435
CG3C54 CG2R51  1  0.356359487256  0.093557084179
CG3C54 CG2R52  1  0.365268474438  0.059170695450
CG3C54 CG2R53  1  0.365268474438  0.059170695450
CG3C54 CG2R57  1  0.356359487256  0.093557084179
CG3C54 CG25C1  1  0.355468588538  0.109105371453
CG3C54 CG25C2  1  0.355468588538  0.109105371453
CG3C54 CG251O  1  0.355468588538  0.109105371453
CG3C54 CG252O  1  0.355468588538  0.109105371453
CG3C54 CG2R61  1  0.346773417049  0.110698234855
CG3C54 CG2R62  1  0.338541512893  0.125520000000
CG3C54 CG2R63  1  0.338541512893  0.132309697301
CG3C54 CG2R64  1  0.356359487256  0.083680000000
CG3C54 CG2R66  1  0.338541512893  0.110698234855
CG3C54 CG2R67  1  0.346773417049  0.110698234855
CG3C54 CG2RC0  1  0.334977918021  0.131646486622
CG3C54 CG2R71  1  0.346987232741  0.108300154755
CG3C54 CG2RC7  1  0.334977918021  0.131646486622
CG3C54 CG301  1  0.338541512893  0.041840000000
CG3C54 CG302  1  0.374177461619  0.059170695450
CG3C54 CG311  1  0.338541512893  0.041840000000
CG3C54 CG312  1  0.351904993665  0.085746484010
CG3C54 CG314  1  0.338541512893  0.041840000000
CG3C54 CG321  1  0.338541512893  0.041840000000
CG3C54 CG322  1  0.338541512893  0.102486650838
CG3C54 CG323  1  0.365268474438  0.138767581228
CG3C54 CG324  1  0.338541512893  0.041840000000
CG3C54 CG331  1  0.338541512893  0.041840000000
CG3C54 CG334  1  0.338541512893  0.041840000000
CG3C54 CG3C50  1  0.338541512893  0.041840000000
CG3C54 CG3C51  1  0.338541512893  0.041840000000
CG3C54 CG3C52  1  0.338541512893  0.041840000000
CG3C54 CG3C53  1  0.338541512893  0.041840000000
CG3C54 CG3C54  1  0.338541512893  0.041840000000
CG3C54 CG3C31  1  0.338541512893  0.041840000000
CG3C54 CG3C41  1  0.338541512893  0.041840000000
CG3C54 CG3RC1  1  0.338541512893  0.041840000000
CG3C54 CG3AM0  1  0.344777803920  0.110698234855
CG3C54 CG3AM1  1  0.345668702638  0.116852760686
CG3C54 CG3AM2  1  0.346559601357  0.118341390899
CG3C54 NG1T1  1  0.328741626994  0.177512086349
CG3C54 NG2D1  1  0.334087019303  0.187114168357
CG3C54 NG2S0  1  0.334087019303  0.004184000000
CG3C54 NG2S1  1  0.307360057758  0.187114168357
CG3C54 NG2S2  1  0.334087019303  0.187114168357
CG3C54 NG2S3  1  0.334087019303  0.187114168357
CG3C54 NG2O1  1  0.334087019303  0.187114168357
CG3C54 NG2P1  1  0.334087019303  0.187114168357
CG3C54 NG2R43  1  0.334087019303  0.187114168357
CG3C54 NG2R50  1  0.334087019303  0.187114168357
CG3C54 NG2R51  1  0.334087019303  0.187114168357
CG3C54 NG2R52  1  0.334087019303  0.187114168357
CG3C54 NG2R53  1  0.334087019303  0.187114168357
CG3C54 NG2R57  1  0.334087019303  0.187114168357
CG3C54 NG2R60  1  0.337650614175  0.102486650838
CG3C54 NG2R61  1  0.334087019303  0.187114168357
CG3C54 NG2R62  1  0.352795892384  0.093557084179
CG3C54 NG2R67  1  0.334087019303  0.187114168357
CG3C54 NG2RC0  1  0.334087019303  0.187114168357
CG3C54 NG301  1  0.347450500075  0.078275472531
CG3C54 NG311  1  0.347450500075  0.088756043175
CG3C54 NG321  1  0.346559601357  0.102486650838
CG3C54 NG331  1  0.345668702638  0.110698234855
CG3C54 NG3C51  1  0.334087019303  0.187114168357
CG3C54 NG3N1  1  0.351904993665  0.102486650838
CG3C54 NG3P0  1  0.334087019303  0.187114168357
CG3C54 NG3P1  1  0.334087019303  0.187114168357
CG3C54 NG3P2  1  0.334087019303  0.187114168357
CG3C54 NG3P3  1  0.334087019303  0.187114168357
CG3C54 OG2D1  1  0.293996576986  0.144938011577
CG3C54 OG2D2  1  0.320723538531  0.144938011577
CG3C54 OG2D3  1  0.293996576986  0.144938011577
CG3C54 OG2D4  1  0.320723538531  0.144938011577
CG3C54 OG2D5  1  0.320010819556  0.169954883425
CG3C54 OG2N1  1  0.320723538531  0.144938011577
CG3C54 OG2P1  1  0.320723538531  0.144938011577
CG3C54 OG2R50  1  0.320723538531  0.144938011577
CG3C54 OG3R60  1  0.316269044940  0.132309697301
CG3C54 OG301  1  0.316269044940  0.132309697301
CG3C54 OG302  1  0.316269044940  0.132309697301
CG3C54 OG303  1  0.316269044940  0.132309697301
CG3C54 OG304  1  0.316269044940  0.132309697301
CG3C54 OG311  1  0.326514380198  0.183381431383
CG3C54 OG312  1  0.325178032121  0.144938011577
CG3C54 OG3C31  1  0.316269044940  0.132309697301
CG3C54 OG3C51  1  0.316269044940  0.132309697301
CG3C54 OG3C61  1  0.316269044940  0.132309697301
CG3C54 OGTIP3  1  0.326799467788  0.163176000000
CG3C54 SG2D1  1  0.351904993665  0.314496560236
CG3C54 SG2R50  1  0.347450500075  0.280671252536
CG3C54 SG311  1  0.347450500075  0.280671252536
CG3C54 SG301  1  0.345223253279  0.257919081884
CG3C54 SG302  1  0.365268474438  0.286840588481
CG3C54 SG3O1  1  0.356359487256  0.286840588481
CG3C54 SG3O2  1  0.347450500075  0.247528778125
CG3C54 SG3O3  1  0.347450500075  0.247528778125
CG3C54  FGA1  1  0.314487247504  0.153729976257
CG3C54  FGA2  1  0.314487247504  0.135577095411
CG3C54  FGA3  1  0.311814551349  0.130309939452
CG3C54  FGP1  1  0.311814551349  0.130309939452
CG3C54  FGR1  1  0.320723538531  0.144938011577
CG3C54 CLGA1  1  0.339432411611  0.245040988571
CG3C54 CLGA3  1  0.339432411611  0.232955260941
CG3C54 BRGA1  1  0.344777803920  0.289876023155
CG3C54 BRGA2  1  0.351904993665  0.304599797767
CG3C54 BRGA3  1  0.347450500075  0.307459952514
CG3C54   SOD  1  0.294954293108  0.090610410351
CG3C54   CLA  1  0.371504765465  0.162045623205
CG3C54   PG0  1  0.360813980847  0.320014464673
CG3C54   PG1  1  0.360813980847  0.320014464673
CG3C54   PG2  1  0.360813980847  0.320014464673
CG3C54  ALG1  1  0.347450500075  0.337324864189
CG3C54   LPH  1  0.169270756447  0.000000000000
CG3C54 CLGR1  1  0.334977918021  0.200657590935
CG3C54 BRGR1  1  0.345668702638  0.236682781799
CG3C54  IGR1  1  0.368832069310  0.301712530731
CG3C54 SG2P1  1  0.355798221064  0.332305491450
CG3C54 OG2S1  1  0.318906105146  0.157831660601
CG3C54 SG2P2  1  0.352314807076  0.329421919951
CG3C54 SEGD1  1  0.363041227642  0.330244580395
CG3C54 BG201  1  0.396449929572  0.081561175077
CG3C54 CC301  1  0.338541512893  0.041840000000
CG3C54 CC3062  1  0.338541512893  0.041840000000
CG3C54 CC311  1  0.338541512893  0.041840000000
CG3C54 CC3161  1  0.338541512893  0.041840000000
CG3C54 CC3162  1  0.338541512893  0.041840000000
CG3C54 CC3163  1  0.338541512893  0.041840000000
CG3C54 CC321  1  0.338541512893  0.041840000000
CG3C54 CC3261  1  0.338541512893  0.041840000000
CG3C54 CC3263  1  0.338541512893  0.041840000000
CG3C54 CC331  1  0.338541512893  0.041840000000
CG3C54 CC2O1  1  0.347450500075  0.138767581228
CG3C54 CC2O2  1  0.347450500075  0.110698234855
CG3C54 CC2O3  1  0.347450500075  0.125520000000
CG3C54 CC2O4  1  0.329632525712  0.102486650838
CG3C54 CC2O5  1  0.320723538531  0.130979917850
CG3C54 OC2D1  1  0.293996576986  0.144938011577
CG3C54 OC2D2  1  0.320723538531  0.144938011577
CG3C54 OC2D3  1  0.293996576986  0.144938011577
CG3C54 OC2D4  1  0.293996576986  0.144938011577
CG3C54 OC3C61  1  0.316269044940  0.132309697301
CG3C54 OC311  1  0.326514380198  0.183381431383
CG3C54 NC2D1  1  0.307360057758  0.187114168357
CG3C54  HCP1  1  0.189271432669  0.089736802707
CG3C54  HCA1  1  0.288651184677  0.088756043175
CG3C54  HCA2  1  0.288651184677  0.078275472531
CG3C54  HCA3  1  0.288651184677  0.064818249282
CG3C54 CC312  1  0.338541512893  0.041840000000
CG3C54 CC322  1  0.338541512893  0.041840000000
CG3C54  HCR1  1  0.240542653898  0.089736802707
CG3C54 HCA3M  1  0.288651184677  0.064818249282
CG3C54 CC321C  1  0.338541512893  0.041840000000
CG3C54 CC321D  1  0.338541512893  0.041840000000
CG3C54 CC311C  1  0.338541512893  0.041840000000
CG3C54 CC311D  1  0.338541512893  0.041840000000
CG3C54 OC301  1  0.316269044940  0.132309697301
CG3C54 OC302  1  0.316269044940  0.132309697301
CG3C54 HCP1M  1  0.189271432669  0.089736802707
CG3C54 OC311M  1  0.326514380198  0.183381431383
CG3C54 OC3C5M  1  0.316269044940  0.132309697301
CG3C54 CC322C  1  0.338541512893  0.041840000000
CG3C54 HCA2C2  1  0.285087589805  0.078275472531
CG3C54 CC312C  1  0.338541512893  0.041840000000
CG3C54 HCA1C2  1  0.288651184677  0.088756043175
CG3C54 OC3C51  1  0.316269044940  0.132309697301
CG3C54 CC3152  1  0.338541512893  0.041840000000
CG3C54 CC3051  1  0.338541512893  0.041840000000
CG3C54 CC3251  1  0.338541512893  0.041840000000
CG3C54 CC3151  1  0.338541512893  0.041840000000
CG3C54 CC3153  1  0.338541512893  0.041840000000
CG3C54 OC2DP  1  0.320723538531  0.144938011577
CG3C54 OC312  1  0.326959829558  0.163176000000
CG3C54 OC30P  1  0.326959829558  0.163176000000
CG3C54    PC  1  0.360813980847  0.320014464673
CG3C54    SC  1  0.356359487256  0.286840588481
CG3C54 CC312D  1  0.338541512893  0.041840000000
CG3C54 OC303  1  0.316269044940  0.132309697301
CG3C54 NC311  1  0.347450500075  0.088756043175
CG3C54   HN1  1  0.189271432669  0.089736802707
CG3C54   HN2  1  0.189271432669  0.089736802707
CG3C54   HN3  1  0.267269615442  0.089736802707
CG3C54   HN4  1  0.189271432669  0.089736802707
CG3C54   HN5  1  0.189271432669  0.089736802707
CG3C54   HN6  1  0.286869387241  0.062058748940
CG3C54   HN7  1  0.286869387241  0.062058748940
CG3C54   HN8  1  0.288651184677  0.070011711020
CG3C54   HN9  1  0.288651184677  0.064818249282
CG3C54   NN1  1  0.334087019303  0.187114168357
CG3C54   NN2  1  0.334087019303  0.187114168357
CG3C54  NN2B  1  0.334087019303  0.187114168357
CG3C54  NN2G  1  0.334087019303  0.187114168357
CG3C54  NN2U  1  0.334087019303  0.187114168357
CG3C54   NN3  1  0.334087019303  0.187114168357
CG3C54  NN3A  1  0.334087019303  0.187114168357
CG3C54  NN3G  1  0.334087019303  0.187114168357
CG3C54   NN4  1  0.334087019303  0.187114168357
CG3C54   NN6  1  0.334087019303  0.187114168357
CG3C54   ON1  1  0.320723538531  0.144938011577
CG3C54  ON1C  1  0.320723538531  0.144938011577
CG3C54   ON2  1  0.326959829558  0.163176000000
CG3C54   ON3  1  0.320723538531  0.144938011577
CG3C54   ON4  1  0.326959829558  0.163176000000
CG3C54   ON5  1  0.326959829558  0.163176000000
CG3C54   ON6  1  0.326959829558  0.163176000000
CG3C54  ON6B  1  0.326959829558  0.163176000000
CG3C54   CN1  1  0.338541512893  0.132309697301
CG3C54  CN1T  1  0.338541512893  0.132309697301
CG3C54   CN2  1  0.338541512893  0.132309697301
CG3C54   CN3  1  0.338541512893  0.125520000000
CG3C54  CN3T  1  0.338541512893  0.125520000000
CG3C54   CN4  1  0.338541512893  0.114583559030
CG3C54   CN5  1  0.338541512893  0.114583559030
CG3C54  CN5G  1  0.338541512893  0.114583559030
CG3C54   CN7  1  0.338541512893  0.041840000000
CG3C54  CN7B  1  0.338541512893  0.041840000000
CG3C54   CN8  1  0.338541512893  0.041840000000
CG3C54  CN8B  1  0.338541512893  0.041840000000
CG3C54   CN9  1  0.338541512893  0.041840000000
CG3C54     P  1  0.360813980847  0.320014464673
CG3C54    P2  1  0.360813980847  0.320014464673
CG3C54    P3  1  0.360813980847  0.320014464673
CG3C54    P4  1  0.360813980847  0.320014464673
CG3C54   HOL  1  0.189271432669  0.089736802707
CG3C54  HAL1  1  0.286869387241  0.062058748940
CG3C54  HAL2  1  0.288651184677  0.070011711020
CG3C54  HAL3  1  0.288651184677  0.064818249282
CG3C54   HBL  1  0.286869387241  0.062058748940
CG3C54   HCL  1  0.189271432669  0.089736802707
CG3C54    HL  1  0.231633666716  0.089736802707
CG3C54  HEL1  1  0.280633096214  0.073666921749
CG3C54  HEL2  1  0.281523994932  0.067464972838
CG3C54    CL  1  0.347450500075  0.110698234855
CG3C54   CCL  1  0.347450500075  0.110698234855
CG3C54  CTL1  1  0.338541512893  0.041840000000
CG3C54  CTL2  1  0.338541512893  0.041840000000
CG3C54  CTL3  1  0.338541512893  0.041840000000
CG3C54  CTL5  1  0.338541512893  0.041840000000
CG3C54  CEL1  1  0.355468588538  0.109105371453
CG3C54  CEL2  1  0.354577689820  0.105847757841
CG3C54  CRL1  1  0.338541512893  0.041840000000
CG3C54  CRL2  1  0.338541512893  0.041840000000
CG3C54   OBL  1  0.293996576986  0.144938011577
CG3C54   OCL  1  0.320723538531  0.144938011577
CG3C54   O2L  1  0.320723538531  0.144938011577
CG3C54   OHL  1  0.326959829558  0.163176000000
CG3C54   OSL  1  0.316269044940  0.132309697301
CG3C54  OSLP  1  0.316269044940  0.132309697301
CG3C54  NH3L  1  0.334087019303  0.187114168357
CG3C54   NTL  1  0.334087019303  0.187114168357
CG3C54    SL  1  0.356359487256  0.286840588481
CG3C54    PL  1  0.360813980847  0.320014464673
CG3C54 HCA1A  1  0.288651184677  0.088756043175
CG3C54 HCA2A  1  0.288651184677  0.078275472531
CG3C54 HCA3A  1  0.288651184677  0.064818249282
CG3C54 CC30A  1  0.338541512893  0.041840000000
CG3C54 CC31A  1  0.338541512893  0.041840000000
CG3C54 CC32A  1  0.338541512893  0.041840000000
CG3C54 CC33A  1  0.338541512893  0.041840000000
CG3C54 CC326A  1  0.338541512893  0.041840000000
CG3C54 HCA25A  1  0.285087589805  0.078275472531
CG3C54 CC325A  1  0.338541512893  0.041840000000
CG3C54 CC325B  1  0.338541512893  0.041840000000
CG3C54 OC305A  1  0.316269044940  0.132309697301
CG3C54 OC30A  1  0.316269044940  0.132309697301
CG3C54  HSIO  1  0.189271432669  0.089736802707
CG3C54  HSIA  1  0.286869387241  0.062058748940
CG3C54   HAL  1  0.286869387241  0.062058748940
CG3C54    AL  1  0.365268474438  0.337324864189
CG3C54    SI  1  0.365268474438  0.324091246411
CG3C54  SIH3  1  0.365268474438  0.324091246411
CG3C54  OSIH  1  0.326959829558  0.163176000000
CG3C54  OSIE  1  0.326959829558  0.163176000000
CG3C54  OSIA  1  0.326959829558  0.163176000000
CG3C54   OAL  1  0.326959829558  0.163176000000
CG3C54    HT  1  0.189271432669  0.089736802707
CG3C54    OT  1  0.326799467788  0.163176000000
CG3C54   DUM  1  0.169270756447  0.000000000000
CG3C54    CM  1  0.356359487256  0.138767581228
CG3C54   CPA  1  0.329632525712  0.125520000000
CG3C54   CPB  1  0.329632525712  0.125520000000
CG3C54   CPM  1  0.329632525712  0.125520000000
CG3C54   CST  1  0.308518226092  0.100764063435
CG3C54  CT1X  1  0.338541512893  0.041840000000
CG3C54  CT2X  1  0.338541512893  0.041840000000
CG3C54  CT3X  1  0.338541512893  0.041840000000
CG3C54    HB  1  0.286869387241  0.062058748940
CG3C54   NPH  1  0.334087019303  0.187114168357
CG3C54    OM  1  0.320723538531  0.144938011577
CG3C54   OST  1  0.320010819556  0.169954883425
CG3C54   POT  1  0.326403017859  0.123410269913
CG3C54   CAL  1  0.291056611216  0.144938011577
CG3C54    MG  1  0.274842254546  0.051243325419
CG3C54   CES  1  0.356359487256  0.182376331798
CG3C54    ZN  1  0.266378716724  0.209200000000
CG3C54    FE  1  0.227179173126  0.000000000000
CG3C54    HE  1  0.301123766731  0.061020452073
CG3C54    NE  1  0.305578260322  0.122698965603
CG3C54  CLAL  1  0.339272049842  0.072469005789
CG3C54    AG  1  0.300901042052  0.893457908130
CG3C54    AU  1  0.300722862308  0.962320000000
CG3C54    CU  1  0.285800308779  0.908997471504
CG3C54    NI  1  0.282949432881  0.994525446633
CG3C54    PB  1  0.328073452955  0.716185437439
CG3C54    PD  1  0.294842930769  1.037598257516
CG3C54    PT  1  0.296001099102  1.168527606863
CG3C54   CAP  1  0.346773417049  0.110698234855
CG3C54    FA  1  0.320723538531  0.144938011577
CG3C54    CN  1  0.325178032121  0.187114168357
CG3C54    NC  1  0.334087019303  0.324091246411
CG3C54   OCA  1  0.293996576986  0.144938011577
CG3C54   COA  1  0.347450500075  0.138767581228
CG3C54   CF1  1  0.338541512893  0.102486650838
CG3C54   CF2  1  0.351904993665  0.085746484010
CG3C54   CF3  1  0.374177461619  0.059170695450
CG3C54   HF1  1  0.286869387241  0.070011711020
CG3C54   HF2  1  0.285087589805  0.072469005789
CG3C54    F1  1  0.314487247504  0.153729976257
CG3C54    F2  1  0.314487247504  0.135577095411
CG3C54    F3  1  0.311814551349  0.130309939452
CG3C54    OX  1  0.320723538531  0.144938011577
CG3C54    HX  1  0.189271432669  0.089736802707
CG3C54  HPER  1  0.189271432669  0.089736802707
CG3C54  OPER  1  0.318427692534  0.188901923946
CG3C54   LIT  1  0.284864865125  0.020196198771
CG3C54   RUB  1  0.338541512893  0.162045623205
CG3C54   BAR  1  0.337650614175  0.162045623205
CG3C54   CAD  1  0.290165712498  0.144938011577
CG3C54  ON2B  1  0.326959829558  0.163176000000
CG3C54    SP  1  0.365268474438  0.280671252536
CG3C54   HNP  1  0.290272620344  0.072469005789
CG3C54  HNE1  1  0.280633096214  0.073666921749
CG3C54  HNE2  1  0.281523994932  0.067464972838
CG3C54  CN3D  1  0.338541512893  0.125520000000
CG3C54  CNE1  1  0.355468588538  0.109105371453
CG3C54  CNE2  1  0.354577689820  0.105847757841
CG3C54   CNA  1  0.346773417049  0.110698234855
CG3C54  CNA2  1  0.338541512893  0.110698234855
CG3C54   CNG  1  0.347450500075  0.138767581228
CG3C54  NN1C  1  0.334087019303  0.187114168357
CG3C54  NN2C  1  0.334087019303  0.187114168357
CG3C54  NN3I  1  0.334087019303  0.187114168357
CG3C54   NNG  1  0.334087019303  0.187114168357
CG3C54   FNA  1  0.320723538531  0.144938011577
CG3C54  ON2M  1  0.316269044940  0.132309697301
CG3C54   CN6  1  0.338541512893  0.041840000000
CG3C54  CN7E  1  0.338541512893  0.041840000000
CG3C54  CT2P  1  0.338541512893  0.041840000000
CG3C54  CTD1  1  0.338541512893  0.041840000000
CG3C54  CPD1  1  0.338541512893  0.041840000000
CG3C54  CC1A  1  0.355468588538  0.109105371453
CG3C54  CC1B  1  0.355468588538  0.109105371453
CG3C54   CC2  1  0.354577689820  0.105847757841
CG3C54   NS1  1  0.334087019303  0.187114168357
CG3C54   NS2  1  0.334087019303  0.187114168357
CG3C54   NHL  1  0.307360057758  0.187114168357
CG3C54  CTO1  1  0.338541512893  0.041840000000
CG3C54  CEL3  1  0.355468588538  0.109105371453
CG3C54  CTO2  1  0.338541512893  0.041840000000
CG3C54  HN3B  1  0.249451641079  0.089736802707
CG3C54  CN1A  1  0.347450500075  0.110698234855
CG3C54  CN3A  1  0.329632525712  0.177512086349
CG3C54  CN3B  1  0.329632525712  0.177512086349
CG3C54  CN3C  1  0.329632525712  0.177512086349
CG3C31     C  1  0.347450500075  0.138767581228
CG3C31    CA  1  0.346773417049  0.110698234855
CG3C31    CC  1  0.347450500075  0.110698234855
CG3C31    CD  1  0.347450500075  0.110698234855
CG3C31   CE1  1  0.355468588538  0.109105371453
CG3C31   CE2  1  0.354577689820  0.105847757841
CG3C31   CP1  1  0.338541512893  0.041840000000
CG3C31   CP2  1  0.338541512893  0.041840000000
CG3C31   CP3  1  0.338541512893  0.041840000000
CG3C31  CPH1  1  0.329632525712  0.093557084179
CG3C31  CPH2  1  0.329632525712  0.093557084179
CG3C31    CS  1  0.365268474438  0.138767581228
CG3C31   CPT  1  0.334977918021  0.131646486622
CG3C31    CY  1  0.346559601357  0.113045454929
CG3C31   CAI  1  0.346559601357  0.113045454929
CG3C31    CT  1  0.338541512893  0.041840000000
CG3C31   CT1  1  0.338541512893  0.041840000000
CG3C31   CT2  1  0.338541512893  0.041840000000
CG3C31  CT2A  1  0.338541512893  0.041840000000
CG3C31   CT3  1  0.338541512893  0.041840000000
CG3C31    C3  1  0.371950214824  0.059170695450
CG3C31     H  1  0.189271432669  0.089736802707
CG3C31    HA  1  0.286869387241  0.062058748940
CG3C31   HB1  1  0.286869387241  0.062058748940
CG3C31   HB2  1  0.288651184677  0.070011711020
CG3C31   HE1  1  0.280633096214  0.073666921749
CG3C31   HE2  1  0.281523994932  0.067464972838
CG3C31    HC  1  0.189271432669  0.089736802707
CG3C31    HP  1  0.290272620344  0.072469005789
CG3C31   HR1  1  0.249451641079  0.089736802707
CG3C31   HR2  1  0.231633666716  0.089736802707
CG3C31   HR3  1  0.300054688270  0.036952087465
CG3C31    HS  1  0.209361198763  0.132309697301
CG3C31   HA1  1  0.288651184677  0.088756043175
CG3C31   HA2  1  0.288651184677  0.077149148019
CG3C31   HA3  1  0.288651184677  0.064818249282
CG3C31     N  1  0.334087019303  0.004184000000
CG3C31   NC2  1  0.334087019303  0.187114168357
CG3C31   NH1  1  0.307360057758  0.187114168357
CG3C31   NH2  1  0.334087019303  0.187114168357
CG3C31   NH3  1  0.334087019303  0.187114168357
CG3C31    NP  1  0.334087019303  0.187114168357
CG3C31   NR1  1  0.334087019303  0.187114168357
CG3C31   NR2  1  0.334087019303  0.187114168357
CG3C31   NR3  1  0.334087019303  0.187114168357
CG3C31    NY  1  0.334087019303  0.187114168357
CG3C31     O  1  0.293996576986  0.144938011577
CG3C31    OB  1  0.293996576986  0.144938011577
CG3C31    OC  1  0.320723538531  0.144938011577
CG3C31   OH1  1  0.326959829558  0.163176000000
CG3C31    OS  1  0.326959829558  0.163176000000
CG3C31     S  1  0.347450500075  0.280671252536
CG3C31    SM  1  0.345223253279  0.257919081884
CG3C31    SS  1  0.365268474438  0.286840588481
CG3C31  HGA1  1  0.288651184677  0.088756043175
CG3C31  HGA2  1  0.288651184677  0.078275472531
CG3C31  HGA3  1  0.288651184677  0.064818249282
CG3C31  HGA4  1  0.280633096214  0.073666921749
CG3C31  HGA5  1  0.281523994932  0.067464972838
CG3C31  HGA6  1  0.286869387241  0.070011711020
CG3C31  HGA7  1  0.285087589805  0.072469005789
CG3C31 HGAAM0  1  0.283305792369  0.070011711020
CG3C31 HGAAM1  1  0.283305792369  0.070011711020
CG3C31 HGAAM2  1  0.281523994932  0.083680000000
CG3C31  HGP1  1  0.189271432669  0.089736802707
CG3C31  HGP2  1  0.189271432669  0.089736802707
CG3C31  HGP3  1  0.209361198763  0.132309697301
CG3C31  HGP4  1  0.189271432669  0.089736802707
CG3C31  HGP5  1  0.231633666716  0.089736802707
CG3C31 HGPAM1  1  0.247224394284  0.039692909190
CG3C31 HGPAM2  1  0.247224394284  0.041840000000
CG3C31 HGPAM3  1  0.246778944925  0.045833423612
CG3C31 HGR51  1  0.290272620344  0.072469005789
CG3C31 HGR52  1  0.249451641079  0.089736802707
CG3C31 HGR53  1  0.231633666716  0.089736802707
CG3C31 HGR61  1  0.290272620344  0.072469005789
CG3C31 HGR62  1  0.267269615442  0.089736802707
CG3C31 HGR63  1  0.249451641079  0.089736802707
CG3C31 HGR71  1  0.290272620344  0.072469005789
CG3C31 HGTIP3  1  0.189271432669  0.089736802707
CG3C31 CG1T1  1  0.333196120584  0.170981810495
CG3C31 CG1T2  1  0.346782326036  0.134409982486
CG3C31 CG1N1  1  0.335868816739  0.177512086349
CG3C31 CG2D1  1  0.355468588538  0.109105371453
CG3C31 CG2D2  1  0.354577689820  0.105847757841
CG3C31 CG2D1O  1  0.355468588538  0.109105371453
CG3C31 CG2D2O  1  0.355468588538  0.109105371453
CG3C31 CG2DC1  1  0.355468588538  0.109105371453
CG3C31 CG2DC2  1  0.355468588538  0.109105371453
CG3C31 CG2DC3  1  0.354577689820  0.105847757841
CG3C31 CG2N1  1  0.347450500075  0.138767581228
CG3C31 CG2N2  1  0.347450500075  0.138767581228
CG3C31 CG2O1  1  0.347450500075  0.138767581228
CG3C31 CG2O2  1  0.320723538531  0.130979917850
CG3C31 CG2O3  1  0.347450500075  0.110698234855
CG3C31 CG2O4  1  0.329632525712  0.102486650838
CG3C31 CG2O5  1  0.347450500075  0.125520000000
CG3C31 CG2O6  1  0.347450500075  0.110698234855
CG3C31 CG2O7  1  0.308518226092  0.100764063435
CG3C31 CG2R51  1  0.356359487256  0.093557084179
CG3C31 CG2R52  1  0.365268474438  0.059170695450
CG3C31 CG2R53  1  0.365268474438  0.059170695450
CG3C31 CG2R57  1  0.356359487256  0.093557084179
CG3C31 CG25C1  1  0.355468588538  0.109105371453
CG3C31 CG25C2  1  0.355468588538  0.109105371453
CG3C31 CG251O  1  0.355468588538  0.109105371453
CG3C31 CG252O  1  0.355468588538  0.109105371453
CG3C31 CG2R61  1  0.346773417049  0.110698234855
CG3C31 CG2R62  1  0.338541512893  0.125520000000
CG3C31 CG2R63  1  0.338541512893  0.132309697301
CG3C31 CG2R64  1  0.356359487256  0.083680000000
CG3C31 CG2R66  1  0.338541512893  0.110698234855
CG3C31 CG2R67  1  0.346773417049  0.110698234855
CG3C31 CG2RC0  1  0.334977918021  0.131646486622
CG3C31 CG2R71  1  0.346987232741  0.108300154755
CG3C31 CG2RC7  1  0.334977918021  0.131646486622
CG3C31 CG301  1  0.338541512893  0.041840000000
CG3C31 CG302  1  0.374177461619  0.059170695450
CG3C31 CG311  1  0.338541512893  0.041840000000
CG3C31 CG312  1  0.351904993665  0.085746484010
CG3C31 CG314  1  0.338541512893  0.041840000000
CG3C31 CG321  1  0.338541512893  0.041840000000
CG3C31 CG322  1  0.338541512893  0.102486650838
CG3C31 CG323  1  0.365268474438  0.138767581228
CG3C31 CG324  1  0.338541512893  0.041840000000
CG3C31 CG331  1  0.338541512893  0.041840000000
CG3C31 CG334  1  0.338541512893  0.041840000000
CG3C31 CG3C50  1  0.338541512893  0.041840000000
CG3C31 CG3C51  1  0.338541512893  0.041840000000
CG3C31 CG3C52  1  0.338541512893  0.041840000000
CG3C31 CG3C53  1  0.338541512893  0.041840000000
CG3C31 CG3C54  1  0.338541512893  0.041840000000
CG3C31 CG3C31  1  0.338541512893  0.041840000000
CG3C31 CG3C41  1  0.338541512893  0.041840000000
CG3C31 CG3RC1  1  0.338541512893  0.041840000000
CG3C31 CG3AM0  1  0.344777803920  0.110698234855
CG3C31 CG3AM1  1  0.345668702638  0.116852760686
CG3C31 CG3AM2  1  0.346559601357  0.118341390899
CG3C31 NG1T1  1  0.328741626994  0.177512086349
CG3C31 NG2D1  1  0.334087019303  0.187114168357
CG3C31 NG2S0  1  0.334087019303  0.004184000000
CG3C31 NG2S1  1  0.307360057758  0.187114168357
CG3C31 NG2S2  1  0.334087019303  0.187114168357
CG3C31 NG2S3  1  0.334087019303  0.187114168357
CG3C31 NG2O1  1  0.334087019303  0.187114168357
CG3C31 NG2P1  1  0.334087019303  0.187114168357
CG3C31 NG2R43  1  0.334087019303  0.187114168357
CG3C31 NG2R50  1  0.334087019303  0.187114168357
CG3C31 NG2R51  1  0.334087019303  0.187114168357
CG3C31 NG2R52  1  0.334087019303  0.187114168357
CG3C31 NG2R53  1  0.334087019303  0.187114168357
CG3C31 NG2R57  1  0.334087019303  0.187114168357
CG3C31 NG2R60  1  0.337650614175  0.102486650838
CG3C31 NG2R61  1  0.334087019303  0.187114168357
CG3C31 NG2R62  1  0.352795892384  0.093557084179
CG3C31 NG2R67  1  0.334087019303  0.187114168357
CG3C31 NG2RC0  1  0.334087019303  0.187114168357
CG3C31 NG301  1  0.347450500075  0.078275472531
CG3C31 NG311  1  0.347450500075  0.088756043175
CG3C31 NG321  1  0.346559601357  0.102486650838
CG3C31 NG331  1  0.345668702638  0.110698234855
CG3C31 NG3C51  1  0.334087019303  0.187114168357
CG3C31 NG3N1  1  0.351904993665  0.102486650838
CG3C31 NG3P0  1  0.334087019303  0.187114168357
CG3C31 NG3P1  1  0.334087019303  0.187114168357
CG3C31 NG3P2  1  0.334087019303  0.187114168357
CG3C31 NG3P3  1  0.334087019303  0.187114168357
CG3C31 OG2D1  1  0.293996576986  0.144938011577
CG3C31 OG2D2  1  0.320723538531  0.144938011577
CG3C31 OG2D3  1  0.293996576986  0.144938011577
CG3C31 OG2D4  1  0.320723538531  0.144938011577
CG3C31 OG2D5  1  0.320010819556  0.169954883425
CG3C31 OG2N1  1  0.320723538531  0.144938011577
CG3C31 OG2P1  1  0.320723538531  0.144938011577
CG3C31 OG2R50  1  0.320723538531  0.144938011577
CG3C31 OG3R60  1  0.316269044940  0.132309697301
CG3C31 OG301  1  0.316269044940  0.132309697301
CG3C31 OG302  1  0.316269044940  0.132309697301
CG3C31 OG303  1  0.316269044940  0.132309697301
CG3C31 OG304  1  0.316269044940  0.132309697301
CG3C31 OG311  1  0.326514380198  0.183381431383
CG3C31 OG312  1  0.325178032121  0.144938011577
CG3C31 OG3C31  1  0.316269044940  0.132309697301
CG3C31 OG3C51  1  0.316269044940  0.132309697301
CG3C31 OG3C61  1  0.316269044940  0.132309697301
CG3C31 OGTIP3  1  0.326799467788  0.163176000000
CG3C31 SG2D1  1  0.351904993665  0.314496560236
CG3C31 SG2R50  1  0.347450500075  0.280671252536
CG3C31 SG311  1  0.347450500075  0.280671252536
CG3C31 SG301  1  0.345223253279  0.257919081884
CG3C31 SG302  1  0.365268474438  0.286840588481
CG3C31 SG3O1  1  0.356359487256  0.286840588481
CG3C31 SG3O2  1  0.347450500075  0.247528778125
CG3C31 SG3O3  1  0.347450500075  0.247528778125
CG3C31  FGA1  1  0.314487247504  0.153729976257
CG3C31  FGA2  1  0.314487247504  0.135577095411
CG3C31  FGA3  1  0.311814551349  0.130309939452
CG3C31  FGP1  1  0.311814551349  0.130309939452
CG3C31  FGR1  1  0.320723538531  0.144938011577
CG3C31 CLGA1  1  0.339432411611  0.245040988571
CG3C31 CLGA3  1  0.339432411611  0.232955260941
CG3C31 BRGA1  1  0.344777803920  0.289876023155
CG3C31 BRGA2  1  0.351904993665  0.304599797767
CG3C31 BRGA3  1  0.347450500075  0.307459952514
CG3C31   SOD  1  0.294954293108  0.090610410351
CG3C31   CLA  1  0.371504765465  0.162045623205
CG3C31   PG0  1  0.360813980847  0.320014464673
CG3C31   PG1  1  0.360813980847  0.320014464673
CG3C31   PG2  1  0.360813980847  0.320014464673
CG3C31  ALG1  1  0.347450500075  0.337324864189
CG3C31   LPH  1  0.169270756447  0.000000000000
CG3C31 CLGR1  1  0.334977918021  0.200657590935
CG3C31 BRGR1  1  0.345668702638  0.236682781799
CG3C31  IGR1  1  0.368832069310  0.301712530731
CG3C31 SG2P1  1  0.355798221064  0.332305491450
CG3C31 OG2S1  1  0.318906105146  0.157831660601
CG3C31 SG2P2  1  0.352314807076  0.329421919951
CG3C31 SEGD1  1  0.363041227642  0.330244580395
CG3C31 BG201  1  0.396449929572  0.081561175077
CG3C31 CC301  1  0.338541512893  0.041840000000
CG3C31 CC3062  1  0.338541512893  0.041840000000
CG3C31 CC311  1  0.338541512893  0.041840000000
CG3C31 CC3161  1  0.338541512893  0.041840000000
CG3C31 CC3162  1  0.338541512893  0.041840000000
CG3C31 CC3163  1  0.338541512893  0.041840000000
CG3C31 CC321  1  0.338541512893  0.041840000000
CG3C31 CC3261  1  0.338541512893  0.041840000000
CG3C31 CC3263  1  0.338541512893  0.041840000000
CG3C31 CC331  1  0.338541512893  0.041840000000
CG3C31 CC2O1  1  0.347450500075  0.138767581228
CG3C31 CC2O2  1  0.347450500075  0.110698234855
CG3C31 CC2O3  1  0.347450500075  0.125520000000
CG3C31 CC2O4  1  0.329632525712  0.102486650838
CG3C31 CC2O5  1  0.320723538531  0.130979917850
CG3C31 OC2D1  1  0.293996576986  0.144938011577
CG3C31 OC2D2  1  0.320723538531  0.144938011577
CG3C31 OC2D3  1  0.293996576986  0.144938011577
CG3C31 OC2D4  1  0.293996576986  0.144938011577
CG3C31 OC3C61  1  0.316269044940  0.132309697301
CG3C31 OC311  1  0.326514380198  0.183381431383
CG3C31 NC2D1  1  0.307360057758  0.187114168357
CG3C31  HCP1  1  0.189271432669  0.089736802707
CG3C31  HCA1  1  0.288651184677  0.088756043175
CG3C31  HCA2  1  0.288651184677  0.078275472531
CG3C31  HCA3  1  0.288651184677  0.064818249282
CG3C31 CC312  1  0.338541512893  0.041840000000
CG3C31 CC322  1  0.338541512893  0.041840000000
CG3C31  HCR1  1  0.240542653898  0.089736802707
CG3C31 HCA3M  1  0.288651184677  0.064818249282
CG3C31 CC321C  1  0.338541512893  0.041840000000
CG3C31 CC321D  1  0.338541512893  0.041840000000
CG3C31 CC311C  1  0.338541512893  0.041840000000
CG3C31 CC311D  1  0.338541512893  0.041840000000
CG3C31 OC301  1  0.316269044940  0.132309697301
CG3C31 OC302  1  0.316269044940  0.132309697301
CG3C31 HCP1M  1  0.189271432669  0.089736802707
CG3C31 OC311M  1  0.326514380198  0.183381431383
CG3C31 OC3C5M  1  0.316269044940  0.132309697301
CG3C31 CC322C  1  0.338541512893  0.041840000000
CG3C31 HCA2C2  1  0.285087589805  0.078275472531
CG3C31 CC312C  1  0.338541512893  0.041840000000
CG3C31 HCA1C2  1  0.288651184677  0.088756043175
CG3C31 OC3C51  1  0.316269044940  0.132309697301
CG3C31 CC3152  1  0.338541512893  0.041840000000
CG3C31 CC3051  1  0.338541512893  0.041840000000
CG3C31 CC3251  1  0.338541512893  0.041840000000
CG3C31 CC3151  1  0.338541512893  0.041840000000
CG3C31 CC3153  1  0.338541512893  0.041840000000
CG3C31 OC2DP  1  0.320723538531  0.144938011577
CG3C31 OC312  1  0.326959829558  0.163176000000
CG3C31 OC30P  1  0.326959829558  0.163176000000
CG3C31    PC  1  0.360813980847  0.320014464673
CG3C31    SC  1  0.356359487256  0.286840588481
CG3C31 CC312D  1  0.338541512893  0.041840000000
CG3C31 OC303  1  0.316269044940  0.132309697301
CG3C31 NC311  1  0.347450500075  0.088756043175
CG3C31   HN1  1  0.189271432669  0.089736802707
CG3C31   HN2  1  0.189271432669  0.089736802707
CG3C31   HN3  1  0.267269615442  0.089736802707
CG3C31   HN4  1  0.189271432669  0.089736802707
CG3C31   HN5  1  0.189271432669  0.089736802707
CG3C31   HN6  1  0.286869387241  0.062058748940
CG3C31   HN7  1  0.286869387241  0.062058748940
CG3C31   HN8  1  0.288651184677  0.070011711020
CG3C31   HN9  1  0.288651184677  0.064818249282
CG3C31   NN1  1  0.334087019303  0.187114168357
CG3C31   NN2  1  0.334087019303  0.187114168357
CG3C31  NN2B  1  0.334087019303  0.187114168357
CG3C31  NN2G  1  0.334087019303  0.187114168357
CG3C31  NN2U  1  0.334087019303  0.187114168357
CG3C31   NN3  1  0.334087019303  0.187114168357
CG3C31  NN3A  1  0.334087019303  0.187114168357
CG3C31  NN3G  1  0.334087019303  0.187114168357
CG3C31   NN4  1  0.334087019303  0.187114168357
CG3C31   NN6  1  0.334087019303  0.187114168357
CG3C31   ON1  1  0.320723538531  0.144938011577
CG3C31  ON1C  1  0.320723538531  0.144938011577
CG3C31   ON2  1  0.326959829558  0.163176000000
CG3C31   ON3  1  0.320723538531  0.144938011577
CG3C31   ON4  1  0.326959829558  0.163176000000
CG3C31   ON5  1  0.326959829558  0.163176000000
CG3C31   ON6  1  0.326959829558  0.163176000000
CG3C31  ON6B  1  0.326959829558  0.163176000000
CG3C31   CN1  1  0.338541512893  0.132309697301
CG3C31  CN1T  1  0.338541512893  0.132309697301
CG3C31   CN2  1  0.338541512893  0.132309697301
CG3C31   CN3  1  0.338541512893  0.125520000000
CG3C31  CN3T  1  0.338541512893  0.125520000000
CG3C31   CN4  1  0.338541512893  0.114583559030
CG3C31   CN5  1  0.338541512893  0.114583559030
CG3C31  CN5G  1  0.338541512893  0.114583559030
CG3C31   CN7  1  0.338541512893  0.041840000000
CG3C31  CN7B  1  0.338541512893  0.041840000000
CG3C31   CN8  1  0.338541512893  0.041840000000
CG3C31  CN8B  1  0.338541512893  0.041840000000
CG3C31   CN9  1  0.338541512893  0.041840000000
CG3C31     P  1  0.360813980847  0.320014464673
CG3C31    P2  1  0.360813980847  0.320014464673
CG3C31    P3  1  0.360813980847  0.320014464673
CG3C31    P4  1  0.360813980847  0.320014464673
CG3C31   HOL  1  0.189271432669  0.089736802707
CG3C31  HAL1  1  0.286869387241  0.062058748940
CG3C31  HAL2  1  0.288651184677  0.070011711020
CG3C31  HAL3  1  0.288651184677  0.064818249282
CG3C31   HBL  1  0.286869387241  0.062058748940
CG3C31   HCL  1  0.189271432669  0.089736802707
CG3C31    HL  1  0.231633666716  0.089736802707
CG3C31  HEL1  1  0.280633096214  0.073666921749
CG3C31  HEL2  1  0.281523994932  0.067464972838
CG3C31    CL  1  0.347450500075  0.110698234855
CG3C31   CCL  1  0.347450500075  0.110698234855
CG3C31  CTL1  1  0.338541512893  0.041840000000
CG3C31  CTL2  1  0.338541512893  0.041840000000
CG3C31  CTL3  1  0.338541512893  0.041840000000
CG3C31  CTL5  1  0.338541512893  0.041840000000
CG3C31  CEL1  1  0.355468588538  0.109105371453
CG3C31  CEL2  1  0.354577689820  0.105847757841
CG3C31  CRL1  1  0.338541512893  0.041840000000
CG3C31  CRL2  1  0.338541512893  0.041840000000
CG3C31   OBL  1  0.293996576986  0.144938011577
CG3C31   OCL  1  0.320723538531  0.144938011577
CG3C31   O2L  1  0.320723538531  0.144938011577
CG3C31   OHL  1  0.326959829558  0.163176000000
CG3C31   OSL  1  0.316269044940  0.132309697301
CG3C31  OSLP  1  0.316269044940  0.132309697301
CG3C31  NH3L  1  0.334087019303  0.187114168357
CG3C31   NTL  1  0.334087019303  0.187114168357
CG3C31    SL  1  0.356359487256  0.286840588481
CG3C31    PL  1  0.360813980847  0.320014464673
CG3C31 HCA1A  1  0.288651184677  0.088756043175
CG3C31 HCA2A  1  0.288651184677  0.078275472531
CG3C31 HCA3A  1  0.288651184677  0.064818249282
CG3C31 CC30A  1  0.338541512893  0.041840000000
CG3C31 CC31A  1  0.338541512893  0.041840000000
CG3C31 CC32A  1  0.338541512893  0.041840000000
CG3C31 CC33A  1  0.338541512893  0.041840000000
CG3C31 CC326A  1  0.338541512893  0.041840000000
CG3C31 HCA25A  1  0.285087589805  0.078275472531
CG3C31 CC325A  1  0.338541512893  0.041840000000
CG3C31 CC325B  1  0.338541512893  0.041840000000
CG3C31 OC305A  1  0.316269044940  0.132309697301
CG3C31 OC30A  1  0.316269044940  0.132309697301
CG3C31  HSIO  1  0.189271432669  0.089736802707
CG3C31  HSIA  1  0.286869387241  0.062058748940
CG3C31   HAL  1  0.286869387241  0.062058748940
CG3C31    AL  1  0.365268474438  0.337324864189
CG3C31    SI  1  0.365268474438  0.324091246411
CG3C31  SIH3  1  0.365268474438  0.324091246411
CG3C31  OSIH  1  0.326959829558  0.163176000000
CG3C31  OSIE  1  0.326959829558  0.163176000000
CG3C31  OSIA  1  0.326959829558  0.163176000000
CG3C31   OAL  1  0.326959829558  0.163176000000
CG3C31    HT  1  0.189271432669  0.089736802707
CG3C31    OT  1  0.326799467788  0.163176000000
CG3C31   DUM  1  0.169270756447  0.000000000000
CG3C31    CM  1  0.356359487256  0.138767581228
CG3C31   CPA  1  0.329632525712  0.125520000000
CG3C31   CPB  1  0.329632525712  0.125520000000
CG3C31   CPM  1  0.329632525712  0.125520000000
CG3C31   CST  1  0.308518226092  0.100764063435
CG3C31  CT1X  1  0.338541512893  0.041840000000
CG3C31  CT2X  1  0.338541512893  0.041840000000
CG3C31  CT3X  1  0.338541512893  0.041840000000
CG3C31    HB  1  0.286869387241  0.062058748940
CG3C31   NPH  1  0.334087019303  0.187114168357
CG3C31    OM  1  0.320723538531  0.144938011577
CG3C31   OST  1  0.320010819556  0.169954883425
CG3C31   POT  1  0.326403017859  0.123410269913
CG3C31   CAL  1  0.291056611216  0.144938011577
CG3C31    MG  1  0.274842254546  0.051243325419
CG3C31   CES  1  0.356359487256  0.182376331798
CG3C31    ZN  1  0.266378716724  0.209200000000
CG3C31    FE  1  0.227179173126  0.000000000000
CG3C31    HE  1  0.301123766731  0.061020452073
CG3C31    NE  1  0.305578260322  0.122698965603
CG3C31  CLAL  1  0.339272049842  0.072469005789
CG3C31    AG  1  0.300901042052  0.893457908130
CG3C31    AU  1  0.300722862308  0.962320000000
CG3C31    CU  1  0.285800308779  0.908997471504
CG3C31    NI  1  0.282949432881  0.994525446633
CG3C31    PB  1  0.328073452955  0.716185437439
CG3C31    PD  1  0.294842930769  1.037598257516
CG3C31    PT  1  0.296001099102  1.168527606863
CG3C31   CAP  1  0.346773417049  0.110698234855
CG3C31    FA  1  0.320723538531  0.144938011577
CG3C31    CN  1  0.325178032121  0.187114168357
CG3C31    NC  1  0.334087019303  0.324091246411
CG3C31   OCA  1  0.293996576986  0.144938011577
CG3C31   COA  1  0.347450500075  0.138767581228
CG3C31   CF1  1  0.338541512893  0.102486650838
CG3C31   CF2  1  0.351904993665  0.085746484010
CG3C31   CF3  1  0.374177461619  0.059170695450
CG3C31   HF1  1  0.286869387241  0.070011711020
CG3C31   HF2  1  0.285087589805  0.072469005789
CG3C31    F1  1  0.314487247504  0.153729976257
CG3C31    F2  1  0.314487247504  0.135577095411
CG3C31    F3  1  0.311814551349  0.130309939452
CG3C31    OX  1  0.320723538531  0.144938011577
CG3C31    HX  1  0.189271432669  0.089736802707
CG3C31  HPER  1  0.189271432669  0.089736802707
CG3C31  OPER  1  0.318427692534  0.188901923946
CG3C31   LIT  1  0.284864865125  0.020196198771
CG3C31   RUB  1  0.338541512893  0.162045623205
CG3C31   BAR  1  0.337650614175  0.162045623205
CG3C31   CAD  1  0.290165712498  0.144938011577
CG3C31  ON2B  1  0.326959829558  0.163176000000
CG3C31    SP  1  0.365268474438  0.280671252536
CG3C31   HNP  1  0.290272620344  0.072469005789
CG3C31  HNE1  1  0.280633096214  0.073666921749
CG3C31  HNE2  1  0.281523994932  0.067464972838
CG3C31  CN3D  1  0.338541512893  0.125520000000
CG3C31  CNE1  1  0.355468588538  0.109105371453
CG3C31  CNE2  1  0.354577689820  0.105847757841
CG3C31   CNA  1  0.346773417049  0.110698234855
CG3C31  CNA2  1  0.338541512893  0.110698234855
CG3C31   CNG  1  0.347450500075  0.138767581228
CG3C31  NN1C  1  0.334087019303  0.187114168357
CG3C31  NN2C  1  0.334087019303  0.187114168357
CG3C31  NN3I  1  0.334087019303  0.187114168357
CG3C31   NNG  1  0.334087019303  0.187114168357
CG3C31   FNA  1  0.320723538531  0.144938011577
CG3C31  ON2M  1  0.316269044940  0.132309697301
CG3C31   CN6  1  0.338541512893  0.041840000000
CG3C31  CN7E  1  0.338541512893  0.041840000000
CG3C31  CT2P  1  0.338541512893  0.041840000000
CG3C31  CTD1  1  0.338541512893  0.041840000000
CG3C31  CPD1  1  0.338541512893  0.041840000000
CG3C31  CC1A  1  0.355468588538  0.109105371453
CG3C31  CC1B  1  0.355468588538  0.109105371453
CG3C31   CC2  1  0.354577689820  0.105847757841
CG3C31   NS1  1  0.334087019303  0.187114168357
CG3C31   NS2  1  0.334087019303  0.187114168357
CG3C31   NHL  1  0.307360057758  0.187114168357
CG3C31  CTO1  1  0.338541512893  0.041840000000
CG3C31  CEL3  1  0.355468588538  0.109105371453
CG3C31  CTO2  1  0.338541512893  0.041840000000
CG3C31  HN3B  1  0.249451641079  0.089736802707
CG3C31  CN1A  1  0.347450500075  0.110698234855
CG3C31  CN3A  1  0.329632525712  0.177512086349
CG3C31  CN3B  1  0.329632525712  0.177512086349
CG3C31  CN3C  1  0.329632525712  0.177512086349
CG3C41     C  1  0.347450500075  0.138767581228
CG3C41    CA  1  0.346773417049  0.110698234855
CG3C41    CC  1  0.347450500075  0.110698234855
CG3C41    CD  1  0.347450500075  0.110698234855
CG3C41   CE1  1  0.355468588538  0.109105371453
CG3C41   CE2  1  0.354577689820  0.105847757841
CG3C41   CP1  1  0.338541512893  0.041840000000
CG3C41   CP2  1  0.338541512893  0.041840000000
CG3C41   CP3  1  0.338541512893  0.041840000000
CG3C41  CPH1  1  0.329632525712  0.093557084179
CG3C41  CPH2  1  0.329632525712  0.093557084179
CG3C41    CS  1  0.365268474438  0.138767581228
CG3C41   CPT  1  0.334977918021  0.131646486622
CG3C41    CY  1  0.346559601357  0.113045454929
CG3C41   CAI  1  0.346559601357  0.113045454929
CG3C41    CT  1  0.338541512893  0.041840000000
CG3C41   CT1  1  0.338541512893  0.041840000000
CG3C41   CT2  1  0.338541512893  0.041840000000
CG3C41  CT2A  1  0.338541512893  0.041840000000
CG3C41   CT3  1  0.338541512893  0.041840000000
CG3C41    C3  1  0.371950214824  0.059170695450
CG3C41     H  1  0.189271432669  0.089736802707
CG3C41    HA  1  0.286869387241  0.062058748940
CG3C41   HB1  1  0.286869387241  0.062058748940
CG3C41   HB2  1  0.288651184677  0.070011711020
CG3C41   HE1  1  0.280633096214  0.073666921749
CG3C41   HE2  1  0.281523994932  0.067464972838
CG3C41    HC  1  0.189271432669  0.089736802707
CG3C41    HP  1  0.290272620344  0.072469005789
CG3C41   HR1  1  0.249451641079  0.089736802707
CG3C41   HR2  1  0.231633666716  0.089736802707
CG3C41   HR3  1  0.300054688270  0.036952087465
CG3C41    HS  1  0.209361198763  0.132309697301
CG3C41   HA1  1  0.288651184677  0.088756043175
CG3C41   HA2  1  0.288651184677  0.077149148019
CG3C41   HA3  1  0.288651184677  0.064818249282
CG3C41     N  1  0.334087019303  0.004184000000
CG3C41   NC2  1  0.334087019303  0.187114168357
CG3C41   NH1  1  0.307360057758  0.187114168357
CG3C41   NH2  1  0.334087019303  0.187114168357
CG3C41   NH3  1  0.334087019303  0.187114168357
CG3C41    NP  1  0.334087019303  0.187114168357
CG3C41   NR1  1  0.334087019303  0.187114168357
CG3C41   NR2  1  0.334087019303  0.187114168357
CG3C41   NR3  1  0.334087019303  0.187114168357
CG3C41    NY  1  0.334087019303  0.187114168357
CG3C41     O  1  0.293996576986  0.144938011577
CG3C41    OB  1  0.293996576986  0.144938011577
CG3C41    OC  1  0.320723538531  0.144938011577
CG3C41   OH1  1  0.326959829558  0.163176000000
CG3C41    OS  1  0.326959829558  0.163176000000
CG3C41     S  1  0.347450500075  0.280671252536
CG3C41    SM  1  0.345223253279  0.257919081884
CG3C41    SS  1  0.365268474438  0.286840588481
CG3C41  HGA1  1  0.288651184677  0.088756043175
CG3C41  HGA2  1  0.288651184677  0.078275472531
CG3C41  HGA3  1  0.288651184677  0.064818249282
CG3C41  HGA4  1  0.280633096214  0.073666921749
CG3C41  HGA5  1  0.281523994932  0.067464972838
CG3C41  HGA6  1  0.286869387241  0.070011711020
CG3C41  HGA7  1  0.285087589805  0.072469005789
CG3C41 HGAAM0  1  0.283305792369  0.070011711020
CG3C41 HGAAM1  1  0.283305792369  0.070011711020
CG3C41 HGAAM2  1  0.281523994932  0.083680000000
CG3C41  HGP1  1  0.189271432669  0.089736802707
CG3C41  HGP2  1  0.189271432669  0.089736802707
CG3C41  HGP3  1  0.209361198763  0.132309697301
CG3C41  HGP4  1  0.189271432669  0.089736802707
CG3C41  HGP5  1  0.231633666716  0.089736802707
CG3C41 HGPAM1  1  0.247224394284  0.039692909190
CG3C41 HGPAM2  1  0.247224394284  0.041840000000
CG3C41 HGPAM3  1  0.246778944925  0.045833423612
CG3C41 HGR51  1  0.290272620344  0.072469005789
CG3C41 HGR52  1  0.249451641079  0.089736802707
CG3C41 HGR53  1  0.231633666716  0.089736802707
CG3C41 HGR61  1  0.290272620344  0.072469005789
CG3C41 HGR62  1  0.267269615442  0.089736802707
CG3C41 HGR63  1  0.249451641079  0.089736802707
CG3C41 HGR71  1  0.290272620344  0.072469005789
CG3C41 HGTIP3  1  0.189271432669  0.089736802707
CG3C41 CG1T1  1  0.333196120584  0.170981810495
CG3C41 CG1T2  1  0.346782326036  0.134409982486
CG3C41 CG1N1  1  0.335868816739  0.177512086349
CG3C41 CG2D1  1  0.355468588538  0.109105371453
CG3C41 CG2D2  1  0.354577689820  0.105847757841
CG3C41 CG2D1O  1  0.355468588538  0.109105371453
CG3C41 CG2D2O  1  0.355468588538  0.109105371453
CG3C41 CG2DC1  1  0.355468588538  0.109105371453
CG3C41 CG2DC2  1  0.355468588538  0.109105371453
CG3C41 CG2DC3  1  0.354577689820  0.105847757841
CG3C41 CG2N1  1  0.347450500075  0.138767581228
CG3C41 CG2N2  1  0.347450500075  0.138767581228
CG3C41 CG2O1  1  0.347450500075  0.138767581228
CG3C41 CG2O2  1  0.320723538531  0.130979917850
CG3C41 CG2O3  1  0.347450500075  0.110698234855
CG3C41 CG2O4  1  0.329632525712  0.102486650838
CG3C41 CG2O5  1  0.347450500075  0.125520000000
CG3C41 CG2O6  1  0.347450500075  0.110698234855
CG3C41 CG2O7  1  0.308518226092  0.100764063435
CG3C41 CG2R51  1  0.356359487256  0.093557084179
CG3C41 CG2R52  1  0.365268474438  0.059170695450
CG3C41 CG2R53  1  0.365268474438  0.059170695450
CG3C41 CG2R57  1  0.356359487256  0.093557084179
CG3C41 CG25C1  1  0.355468588538  0.109105371453
CG3C41 CG25C2  1  0.355468588538  0.109105371453
CG3C41 CG251O  1  0.355468588538  0.109105371453
CG3C41 CG252O  1  0.355468588538  0.109105371453
CG3C41 CG2R61  1  0.346773417049  0.110698234855
CG3C41 CG2R62  1  0.338541512893  0.125520000000
CG3C41 CG2R63  1  0.338541512893  0.132309697301
CG3C41 CG2R64  1  0.356359487256  0.083680000000
CG3C41 CG2R66  1  0.338541512893  0.110698234855
CG3C41 CG2R67  1  0.346773417049  0.110698234855
CG3C41 CG2RC0  1  0.334977918021  0.131646486622
CG3C41 CG2R71  1  0.346987232741  0.108300154755
CG3C41 CG2RC7  1  0.334977918021  0.131646486622
CG3C41 CG301  1  0.338541512893  0.041840000000
CG3C41 CG302  1  0.374177461619  0.059170695450
CG3C41 CG311  1  0.338541512893  0.041840000000
CG3C41 CG312  1  0.351904993665  0.085746484010
CG3C41 CG314  1  0.338541512893  0.041840000000
CG3C41 CG321  1  0.338541512893  0.041840000000
CG3C41 CG322  1  0.338541512893  0.102486650838
CG3C41 CG323  1  0.365268474438  0.138767581228
CG3C41 CG324  1  0.338541512893  0.041840000000
CG3C41 CG331  1  0.338541512893  0.041840000000
CG3C41 CG334  1  0.338541512893  0.041840000000
CG3C41 CG3C50  1  0.338541512893  0.041840000000
CG3C41 CG3C51  1  0.338541512893  0.041840000000
CG3C41 CG3C52  1  0.338541512893  0.041840000000
CG3C41 CG3C53  1  0.338541512893  0.041840000000
CG3C41 CG3C54  1  0.338541512893  0.041840000000
CG3C41 CG3C31  1  0.338541512893  0.041840000000
CG3C41 CG3C41  1  0.338541512893  0.041840000000
CG3C41 CG3RC1  1  0.338541512893  0.041840000000
CG3C41 CG3AM0  1  0.344777803920  0.110698234855
CG3C41 CG3AM1  1  0.345668702638  0.116852760686
CG3C41 CG3AM2  1  0.346559601357  0.118341390899
CG3C41 NG1T1  1  0.328741626994  0.177512086349
CG3C41 NG2D1  1  0.334087019303  0.187114168357
CG3C41 NG2S0  1  0.334087019303  0.004184000000
CG3C41 NG2S1  1  0.307360057758  0.187114168357
CG3C41 NG2S2  1  0.334087019303  0.187114168357
CG3C41 NG2S3  1  0.334087019303  0.187114168357
CG3C41 NG2O1  1  0.334087019303  0.187114168357
CG3C41 NG2P1  1  0.334087019303  0.187114168357
CG3C41 NG2R43  1  0.334087019303  0.187114168357
CG3C41 NG2R50  1  0.334087019303  0.187114168357
CG3C41 NG2R51  1  0.334087019303  0.187114168357
CG3C41 NG2R52  1  0.334087019303  0.187114168357
CG3C41 NG2R53  1  0.334087019303  0.187114168357
CG3C41 NG2R57  1  0.334087019303  0.187114168357
CG3C41 NG2R60  1  0.337650614175  0.102486650838
CG3C41 NG2R61  1  0.334087019303  0.187114168357
CG3C41 NG2R62  1  0.352795892384  0.093557084179
CG3C41 NG2R67  1  0.334087019303  0.187114168357
CG3C41 NG2RC0  1  0.334087019303  0.187114168357
CG3C41 NG301  1  0.347450500075  0.078275472531
CG3C41 NG311  1  0.347450500075  0.088756043175
CG3C41 NG321  1  0.346559601357  0.102486650838
CG3C41 NG331  1  0.345668702638  0.110698234855
CG3C41 NG3C51  1  0.334087019303  0.187114168357
CG3C41 NG3N1  1  0.351904993665  0.102486650838
CG3C41 NG3P0  1  0.334087019303  0.187114168357
CG3C41 NG3P1  1  0.334087019303  0.187114168357
CG3C41 NG3P2  1  0.334087019303  0.187114168357
CG3C41 NG3P3  1  0.334087019303  0.187114168357
CG3C41 OG2D1  1  0.293996576986  0.144938011577
CG3C41 OG2D2  1  0.320723538531  0.144938011577
CG3C41 OG2D3  1  0.293996576986  0.144938011577
CG3C41 OG2D4  1  0.320723538531  0.144938011577
CG3C41 OG2D5  1  0.320010819556  0.169954883425
CG3C41 OG2N1  1  0.320723538531  0.144938011577
CG3C41 OG2P1  1  0.320723538531  0.144938011577
CG3C41 OG2R50  1  0.320723538531  0.144938011577
CG3C41 OG3R60  1  0.316269044940  0.132309697301
CG3C41 OG301  1  0.316269044940  0.132309697301
CG3C41 OG302  1  0.316269044940  0.132309697301
CG3C41 OG303  1  0.316269044940  0.132309697301
CG3C41 OG304  1  0.316269044940  0.132309697301
CG3C41 OG311  1  0.326514380198  0.183381431383
CG3C41 OG312  1  0.325178032121  0.144938011577
CG3C41 OG3C31  1  0.316269044940  0.132309697301
CG3C41 OG3C51  1  0.316269044940  0.132309697301
CG3C41 OG3C61  1  0.316269044940  0.132309697301
CG3C41 OGTIP3  1  0.326799467788  0.163176000000
CG3C41 SG2D1  1  0.351904993665  0.314496560236
CG3C41 SG2R50  1  0.347450500075  0.280671252536
CG3C41 SG311  1  0.347450500075  0.280671252536
CG3C41 SG301  1  0.345223253279  0.257919081884
CG3C41 SG302  1  0.365268474438  0.286840588481
CG3C41 SG3O1  1  0.356359487256  0.286840588481
CG3C41 SG3O2  1  0.347450500075  0.247528778125
CG3C41 SG3O3  1  0.347450500075  0.247528778125
CG3C41  FGA1  1  0.314487247504  0.153729976257
CG3C41  FGA2  1  0.314487247504  0.135577095411
CG3C41  FGA3  1  0.311814551349  0.130309939452
CG3C41  FGP1  1  0.311814551349  0.130309939452
CG3C41  FGR1  1  0.320723538531  0.144938011577
CG3C41 CLGA1  1  0.339432411611  0.245040988571
CG3C41 CLGA3  1  0.339432411611  0.232955260941
CG3C41 BRGA1  1  0.344777803920  0.289876023155
CG3C41 BRGA2  1  0.351904993665  0.304599797767
CG3C41 BRGA3  1  0.347450500075  0.307459952514
CG3C41   SOD  1  0.294954293108  0.090610410351
CG3C41   CLA  1  0.371504765465  0.162045623205
CG3C41   PG0  1  0.360813980847  0.320014464673
CG3C41   PG1  1  0.360813980847  0.320014464673
CG3C41   PG2  1  0.360813980847  0.320014464673
CG3C41  ALG1  1  0.347450500075  0.337324864189
CG3C41   LPH  1  0.169270756447  0.000000000000
CG3C41 CLGR1  1  0.334977918021  0.200657590935
CG3C41 BRGR1  1  0.345668702638  0.236682781799
CG3C41  IGR1  1  0.368832069310  0.301712530731
CG3C41 SG2P1  1  0.355798221064  0.332305491450
CG3C41 OG2S1  1  0.318906105146  0.157831660601
CG3C41 SG2P2  1  0.352314807076  0.329421919951
CG3C41 SEGD1  1  0.363041227642  0.330244580395
CG3C41 BG201  1  0.396449929572  0.081561175077
CG3C41 CC301  1  0.338541512893  0.041840000000
CG3C41 CC3062  1  0.338541512893  0.041840000000
CG3C41 CC311  1  0.338541512893  0.041840000000
CG3C41 CC3161  1  0.338541512893  0.041840000000
CG3C41 CC3162  1  0.338541512893  0.041840000000
CG3C41 CC3163  1  0.338541512893  0.041840000000
CG3C41 CC321  1  0.338541512893  0.041840000000
CG3C41 CC3261  1  0.338541512893  0.041840000000
CG3C41 CC3263  1  0.338541512893  0.041840000000
CG3C41 CC331  1  0.338541512893  0.041840000000
CG3C41 CC2O1  1  0.347450500075  0.138767581228
CG3C41 CC2O2  1  0.347450500075  0.110698234855
CG3C41 CC2O3  1  0.347450500075  0.125520000000
CG3C41 CC2O4  1  0.329632525712  0.102486650838
CG3C41 CC2O5  1  0.320723538531  0.130979917850
CG3C41 OC2D1  1  0.293996576986  0.144938011577
CG3C41 OC2D2  1  0.320723538531  0.144938011577
CG3C41 OC2D3  1  0.293996576986  0.144938011577
CG3C41 OC2D4  1  0.293996576986  0.144938011577
CG3C41 OC3C61  1  0.316269044940  0.132309697301
CG3C41 OC311  1  0.326514380198  0.183381431383
CG3C41 NC2D1  1  0.307360057758  0.187114168357
CG3C41  HCP1  1  0.189271432669  0.089736802707
CG3C41  HCA1  1  0.288651184677  0.088756043175
CG3C41  HCA2  1  0.288651184677  0.078275472531
CG3C41  HCA3  1  0.288651184677  0.064818249282
CG3C41 CC312  1  0.338541512893  0.041840000000
CG3C41 CC322  1  0.338541512893  0.041840000000
CG3C41  HCR1  1  0.240542653898  0.089736802707
CG3C41 HCA3M  1  0.288651184677  0.064818249282
CG3C41 CC321C  1  0.338541512893  0.041840000000
CG3C41 CC321D  1  0.338541512893  0.041840000000
CG3C41 CC311C  1  0.338541512893  0.041840000000
CG3C41 CC311D  1  0.338541512893  0.041840000000
CG3C41 OC301  1  0.316269044940  0.132309697301
CG3C41 OC302  1  0.316269044940  0.132309697301
CG3C41 HCP1M  1  0.189271432669  0.089736802707
CG3C41 OC311M  1  0.326514380198  0.183381431383
CG3C41 OC3C5M  1  0.316269044940  0.132309697301
CG3C41 CC322C  1  0.338541512893  0.041840000000
CG3C41 HCA2C2  1  0.285087589805  0.078275472531
CG3C41 CC312C  1  0.338541512893  0.041840000000
CG3C41 HCA1C2  1  0.288651184677  0.088756043175
CG3C41 OC3C51  1  0.316269044940  0.132309697301
CG3C41 CC3152  1  0.338541512893  0.041840000000
CG3C41 CC3051  1  0.338541512893  0.041840000000
CG3C41 CC3251  1  0.338541512893  0.041840000000
CG3C41 CC3151  1  0.338541512893  0.041840000000
CG3C41 CC3153  1  0.338541512893  0.041840000000
CG3C41 OC2DP  1  0.320723538531  0.144938011577
CG3C41 OC312  1  0.326959829558  0.163176000000
CG3C41 OC30P  1  0.326959829558  0.163176000000
CG3C41    PC  1  0.360813980847  0.320014464673
CG3C41    SC  1  0.356359487256  0.286840588481
CG3C41 CC312D  1  0.338541512893  0.041840000000
CG3C41 OC303  1  0.316269044940  0.132309697301
CG3C41 NC311  1  0.347450500075  0.088756043175
CG3C41   HN1  1  0.189271432669  0.089736802707
CG3C41   HN2  1  0.189271432669  0.089736802707
CG3C41   HN3  1  0.267269615442  0.089736802707
CG3C41   HN4  1  0.189271432669  0.089736802707
CG3C41   HN5  1  0.189271432669  0.089736802707
CG3C41   HN6  1  0.286869387241  0.062058748940
CG3C41   HN7  1  0.286869387241  0.062058748940
CG3C41   HN8  1  0.288651184677  0.070011711020
CG3C41   HN9  1  0.288651184677  0.064818249282
CG3C41   NN1  1  0.334087019303  0.187114168357
CG3C41   NN2  1  0.334087019303  0.187114168357
CG3C41  NN2B  1  0.334087019303  0.187114168357
CG3C41  NN2G  1  0.334087019303  0.187114168357
CG3C41  NN2U  1  0.334087019303  0.187114168357
CG3C41   NN3  1  0.334087019303  0.187114168357
CG3C41  NN3A  1  0.334087019303  0.187114168357
CG3C41  NN3G  1  0.334087019303  0.187114168357
CG3C41   NN4  1  0.334087019303  0.187114168357
CG3C41   NN6  1  0.334087019303  0.187114168357
CG3C41   ON1  1  0.320723538531  0.144938011577
CG3C41  ON1C  1  0.320723538531  0.144938011577
CG3C41   ON2  1  0.326959829558  0.163176000000
CG3C41   ON3  1  0.320723538531  0.144938011577
CG3C41   ON4  1  0.326959829558  0.163176000000
CG3C41   ON5  1  0.326959829558  0.163176000000
CG3C41   ON6  1  0.326959829558  0.163176000000
CG3C41  ON6B  1  0.326959829558  0.163176000000
CG3C41   CN1  1  0.338541512893  0.132309697301
CG3C41  CN1T  1  0.338541512893  0.132309697301
CG3C41   CN2  1  0.338541512893  0.132309697301
CG3C41   CN3  1  0.338541512893  0.125520000000
CG3C41  CN3T  1  0.338541512893  0.125520000000
CG3C41   CN4  1  0.338541512893  0.114583559030
CG3C41   CN5  1  0.338541512893  0.114583559030
CG3C41  CN5G  1  0.338541512893  0.114583559030
CG3C41   CN7  1  0.338541512893  0.041840000000
CG3C41  CN7B  1  0.338541512893  0.041840000000
CG3C41   CN8  1  0.338541512893  0.041840000000
CG3C41  CN8B  1  0.338541512893  0.041840000000
CG3C41   CN9  1  0.338541512893  0.041840000000
CG3C41     P  1  0.360813980847  0.320014464673
CG3C41    P2  1  0.360813980847  0.320014464673
CG3C41    P3  1  0.360813980847  0.320014464673
CG3C41    P4  1  0.360813980847  0.320014464673
CG3C41   HOL  1  0.189271432669  0.089736802707
CG3C41  HAL1  1  0.286869387241  0.062058748940
CG3C41  HAL2  1  0.288651184677  0.070011711020
CG3C41  HAL3  1  0.288651184677  0.064818249282
CG3C41   HBL  1  0.286869387241  0.062058748940
CG3C41   HCL  1  0.189271432669  0.089736802707
CG3C41    HL  1  0.231633666716  0.089736802707
CG3C41  HEL1  1  0.280633096214  0.073666921749
CG3C41  HEL2  1  0.281523994932  0.067464972838
CG3C41    CL  1  0.347450500075  0.110698234855
CG3C41   CCL  1  0.347450500075  0.110698234855
CG3C41  CTL1  1  0.338541512893  0.041840000000
CG3C41  CTL2  1  0.338541512893  0.041840000000
CG3C41  CTL3  1  0.338541512893  0.041840000000
CG3C41  CTL5  1  0.338541512893  0.041840000000
CG3C41  CEL1  1  0.355468588538  0.109105371453
CG3C41  CEL2  1  0.354577689820  0.105847757841
CG3C41  CRL1  1  0.338541512893  0.041840000000
CG3C41  CRL2  1  0.338541512893  0.041840000000
CG3C41   OBL  1  0.293996576986  0.144938011577
CG3C41   OCL  1  0.320723538531  0.144938011577
CG3C41   O2L  1  0.320723538531  0.144938011577
CG3C41   OHL  1  0.326959829558  0.163176000000
CG3C41   OSL  1  0.316269044940  0.132309697301
CG3C41  OSLP  1  0.316269044940  0.132309697301
CG3C41  NH3L  1  0.334087019303  0.187114168357
CG3C41   NTL  1  0.334087019303  0.187114168357
CG3C41    SL  1  0.356359487256  0.286840588481
CG3C41    PL  1  0.360813980847  0.320014464673
CG3C41 HCA1A  1  0.288651184677  0.088756043175
CG3C41 HCA2A  1  0.288651184677  0.078275472531
CG3C41 HCA3A  1  0.288651184677  0.064818249282
CG3C41 CC30A  1  0.338541512893  0.041840000000
CG3C41 CC31A  1  0.338541512893  0.041840000000
CG3C41 CC32A  1  0.338541512893  0.041840000000
CG3C41 CC33A  1  0.338541512893  0.041840000000
CG3C41 CC326A  1  0.338541512893  0.041840000000
CG3C41 HCA25A  1  0.285087589805  0.078275472531
CG3C41 CC325A  1  0.338541512893  0.041840000000
CG3C41 CC325B  1  0.338541512893  0.041840000000
CG3C41 OC305A  1  0.316269044940  0.132309697301
CG3C41 OC30A  1  0.316269044940  0.132309697301
CG3C41  HSIO  1  0.189271432669  0.089736802707
CG3C41  HSIA  1  0.286869387241  0.062058748940
CG3C41   HAL  1  0.286869387241  0.062058748940
CG3C41    AL  1  0.365268474438  0.337324864189
CG3C41    SI  1  0.365268474438  0.324091246411
CG3C41  SIH3  1  0.365268474438  0.324091246411
CG3C41  OSIH  1  0.326959829558  0.163176000000
CG3C41  OSIE  1  0.326959829558  0.163176000000
CG3C41  OSIA  1  0.326959829558  0.163176000000
CG3C41   OAL  1  0.326959829558  0.163176000000
CG3C41    HT  1  0.189271432669  0.089736802707
CG3C41    OT  1  0.326799467788  0.163176000000
CG3C41   DUM  1  0.169270756447  0.000000000000
CG3C41    CM  1  0.356359487256  0.138767581228
CG3C41   CPA  1  0.329632525712  0.125520000000
CG3C41   CPB  1  0.329632525712  0.125520000000
CG3C41   CPM  1  0.329632525712  0.125520000000
CG3C41   CST  1  0.308518226092  0.100764063435
CG3C41  CT1X  1  0.338541512893  0.041840000000
CG3C41  CT2X  1  0.338541512893  0.041840000000
CG3C41  CT3X  1  0.338541512893  0.041840000000
CG3C41    HB  1  0.286869387241  0.062058748940
CG3C41   NPH  1  0.334087019303  0.187114168357
CG3C41    OM  1  0.320723538531  0.144938011577
CG3C41   OST  1  0.320010819556  0.169954883425
CG3C41   POT  1  0.326403017859  0.123410269913
CG3C41   CAL  1  0.291056611216  0.144938011577
CG3C41    MG  1  0.274842254546  0.051243325419
CG3C41   CES  1  0.356359487256  0.182376331798
CG3C41    ZN  1  0.266378716724  0.209200000000
CG3C41    FE  1  0.227179173126  0.000000000000
CG3C41    HE  1  0.301123766731  0.061020452073
CG3C41    NE  1  0.305578260322  0.122698965603
CG3C41  CLAL  1  0.339272049842  0.072469005789
CG3C41    AG  1  0.300901042052  0.893457908130
CG3C41    AU  1  0.300722862308  0.962320000000
CG3C41    CU  1  0.285800308779  0.908997471504
CG3C41    NI  1  0.282949432881  0.994525446633
CG3C41    PB  1  0.328073452955  0.716185437439
CG3C41    PD  1  0.294842930769  1.037598257516
CG3C41    PT  1  0.296001099102  1.168527606863
CG3C41   CAP  1  0.346773417049  0.110698234855
CG3C41    FA  1  0.320723538531  0.144938011577
CG3C41    CN  1  0.325178032121  0.187114168357
CG3C41    NC  1  0.334087019303  0.324091246411
CG3C41   OCA  1  0.293996576986  0.144938011577
CG3C41   COA  1  0.347450500075  0.138767581228
CG3C41   CF1  1  0.338541512893  0.102486650838
CG3C41   CF2  1  0.351904993665  0.085746484010
CG3C41   CF3  1  0.374177461619  0.059170695450
CG3C41   HF1  1  0.286869387241  0.070011711020
CG3C41   HF2  1  0.285087589805  0.072469005789
CG3C41    F1  1  0.314487247504  0.153729976257
CG3C41    F2  1  0.314487247504  0.135577095411
CG3C41    F3  1  0.311814551349  0.130309939452
CG3C41    OX  1  0.320723538531  0.144938011577
CG3C41    HX  1  0.189271432669  0.089736802707
CG3C41  HPER  1  0.189271432669  0.089736802707
CG3C41  OPER  1  0.318427692534  0.188901923946
CG3C41   LIT  1  0.284864865125  0.020196198771
CG3C41   RUB  1  0.338541512893  0.162045623205
CG3C41   BAR  1  0.337650614175  0.162045623205
CG3C41   CAD  1  0.290165712498  0.144938011577
CG3C41  ON2B  1  0.326959829558  0.163176000000
CG3C41    SP  1  0.365268474438  0.280671252536
CG3C41   HNP  1  0.290272620344  0.072469005789
CG3C41  HNE1  1  0.280633096214  0.073666921749
CG3C41  HNE2  1  0.281523994932  0.067464972838
CG3C41  CN3D  1  0.338541512893  0.125520000000
CG3C41  CNE1  1  0.355468588538  0.109105371453
CG3C41  CNE2  1  0.354577689820  0.105847757841
CG3C41   CNA  1  0.346773417049  0.110698234855
CG3C41  CNA2  1  0.338541512893  0.110698234855
CG3C41   CNG  1  0.347450500075  0.138767581228
CG3C41  NN1C  1  0.334087019303  0.187114168357
CG3C41  NN2C  1  0.334087019303  0.187114168357
CG3C41  NN3I  1  0.334087019303  0.187114168357
CG3C41   NNG  1  0.334087019303  0.187114168357
CG3C41   FNA  1  0.320723538531  0.144938011577
CG3C41  ON2M  1  0.316269044940  0.132309697301
CG3C41   CN6  1  0.338541512893  0.041840000000
CG3C41  CN7E  1  0.338541512893  0.041840000000
CG3C41  CT2P  1  0.338541512893  0.041840000000
CG3C41  CTD1  1  0.338541512893  0.041840000000
CG3C41  CPD1  1  0.338541512893  0.041840000000
CG3C41  CC1A  1  0.355468588538  0.109105371453
CG3C41  CC1B  1  0.355468588538  0.109105371453
CG3C41   CC2  1  0.354577689820  0.105847757841
CG3C41   NS1  1  0.334087019303  0.187114168357
CG3C41   NS2  1  0.334087019303  0.187114168357
CG3C41   NHL  1  0.307360057758  0.187114168357
CG3C41  CTO1  1  0.338541512893  0.041840000000
CG3C41  CEL3  1  0.355468588538  0.109105371453
CG3C41  CTO2  1  0.338541512893  0.041840000000
CG3C41  HN3B  1  0.249451641079  0.089736802707
CG3C41  CN1A  1  0.347450500075  0.110698234855
CG3C41  CN3A  1  0.329632525712  0.177512086349
CG3C41  CN3B  1  0.329632525712  0.177512086349
CG3C41  CN3C  1  0.329632525712  0.177512086349
CG3RC1     C  1  0.347450500075  0.138767581228
CG3RC1    CA  1  0.346773417049  0.110698234855
CG3RC1    CC  1  0.347450500075  0.110698234855
CG3RC1    CD  1  0.347450500075  0.110698234855
CG3RC1   CE1  1  0.355468588538  0.109105371453
CG3RC1   CE2  1  0.354577689820  0.105847757841
CG3RC1   CP1  1  0.338541512893  0.041840000000
CG3RC1   CP2  1  0.338541512893  0.041840000000
CG3RC1   CP3  1  0.338541512893  0.041840000000
CG3RC1  CPH1  1  0.329632525712  0.093557084179
CG3RC1  CPH2  1  0.329632525712  0.093557084179
CG3RC1    CS  1  0.365268474438  0.138767581228
CG3RC1   CPT  1  0.334977918021  0.131646486622
CG3RC1    CY  1  0.346559601357  0.113045454929
CG3RC1   CAI  1  0.346559601357  0.113045454929
CG3RC1    CT  1  0.338541512893  0.041840000000
CG3RC1   CT1  1  0.338541512893  0.041840000000
CG3RC1   CT2  1  0.338541512893  0.041840000000
CG3RC1  CT2A  1  0.338541512893  0.041840000000
CG3RC1   CT3  1  0.338541512893  0.041840000000
CG3RC1    C3  1  0.371950214824  0.059170695450
CG3RC1     H  1  0.189271432669  0.089736802707
CG3RC1    HA  1  0.286869387241  0.062058748940
CG3RC1   HB1  1  0.286869387241  0.062058748940
CG3RC1   HB2  1  0.288651184677  0.070011711020
CG3RC1   HE1  1  0.280633096214  0.073666921749
CG3RC1   HE2  1  0.281523994932  0.067464972838
CG3RC1    HC  1  0.189271432669  0.089736802707
CG3RC1    HP  1  0.290272620344  0.072469005789
CG3RC1   HR1  1  0.249451641079  0.089736802707
CG3RC1   HR2  1  0.231633666716  0.089736802707
CG3RC1   HR3  1  0.300054688270  0.036952087465
CG3RC1    HS  1  0.209361198763  0.132309697301
CG3RC1   HA1  1  0.288651184677  0.088756043175
CG3RC1   HA2  1  0.288651184677  0.077149148019
CG3RC1   HA3  1  0.288651184677  0.064818249282
CG3RC1     N  1  0.334087019303  0.004184000000
CG3RC1   NC2  1  0.334087019303  0.187114168357
CG3RC1   NH1  1  0.307360057758  0.187114168357
CG3RC1   NH2  1  0.334087019303  0.187114168357
CG3RC1   NH3  1  0.334087019303  0.187114168357
CG3RC1    NP  1  0.334087019303  0.187114168357
CG3RC1   NR1  1  0.334087019303  0.187114168357
CG3RC1   NR2  1  0.334087019303  0.187114168357
CG3RC1   NR3  1  0.334087019303  0.187114168357
CG3RC1    NY  1  0.334087019303  0.187114168357
CG3RC1     O  1  0.293996576986  0.144938011577
CG3RC1    OB  1  0.293996576986  0.144938011577
CG3RC1    OC  1  0.320723538531  0.144938011577
CG3RC1   OH1  1  0.326959829558  0.163176000000
CG3RC1    OS  1  0.326959829558  0.163176000000
CG3RC1     S  1  0.347450500075  0.280671252536
CG3RC1    SM  1  0.345223253279  0.257919081884
CG3RC1    SS  1  0.365268474438  0.286840588481
CG3RC1  HGA1  1  0.288651184677  0.088756043175
CG3RC1  HGA2  1  0.288651184677  0.078275472531
CG3RC1  HGA3  1  0.288651184677  0.064818249282
CG3RC1  HGA4  1  0.280633096214  0.073666921749
CG3RC1  HGA5  1  0.281523994932  0.067464972838
CG3RC1  HGA6  1  0.286869387241  0.070011711020
CG3RC1  HGA7  1  0.285087589805  0.072469005789
CG3RC1 HGAAM0  1  0.283305792369  0.070011711020
CG3RC1 HGAAM1  1  0.283305792369  0.070011711020
CG3RC1 HGAAM2  1  0.281523994932  0.083680000000
CG3RC1  HGP1  1  0.189271432669  0.089736802707
CG3RC1  HGP2  1  0.189271432669  0.089736802707
CG3RC1  HGP3  1  0.209361198763  0.132309697301
CG3RC1  HGP4  1  0.189271432669  0.089736802707
CG3RC1  HGP5  1  0.231633666716  0.089736802707
CG3RC1 HGPAM1  1  0.247224394284  0.039692909190
CG3RC1 HGPAM2  1  0.247224394284  0.041840000000
CG3RC1 HGPAM3  1  0.246778944925  0.045833423612
CG3RC1 HGR51  1  0.290272620344  0.072469005789
CG3RC1 HGR52  1  0.249451641079  0.089736802707
CG3RC1 HGR53  1  0.231633666716  0.089736802707
CG3RC1 HGR61  1  0.290272620344  0.072469005789
CG3RC1 HGR62  1  0.267269615442  0.089736802707
CG3RC1 HGR63  1  0.249451641079  0.089736802707
CG3RC1 HGR71  1  0.290272620344  0.072469005789
CG3RC1 HGTIP3  1  0.189271432669  0.089736802707
CG3RC1 CG1T1  1  0.333196120584  0.170981810495
CG3RC1 CG1T2  1  0.346782326036  0.134409982486
CG3RC1 CG1N1  1  0.335868816739  0.177512086349
CG3RC1 CG2D1  1  0.355468588538  0.109105371453
CG3RC1 CG2D2  1  0.354577689820  0.105847757841
CG3RC1 CG2D1O  1  0.355468588538  0.109105371453
CG3RC1 CG2D2O  1  0.355468588538  0.109105371453
CG3RC1 CG2DC1  1  0.355468588538  0.109105371453
CG3RC1 CG2DC2  1  0.355468588538  0.109105371453
CG3RC1 CG2DC3  1  0.354577689820  0.105847757841
CG3RC1 CG2N1  1  0.347450500075  0.138767581228
CG3RC1 CG2N2  1  0.347450500075  0.138767581228
CG3RC1 CG2O1  1  0.347450500075  0.138767581228
CG3RC1 CG2O2  1  0.320723538531  0.130979917850
CG3RC1 CG2O3  1  0.347450500075  0.110698234855
CG3RC1 CG2O4  1  0.329632525712  0.102486650838
CG3RC1 CG2O5  1  0.347450500075  0.125520000000
CG3RC1 CG2O6  1  0.347450500075  0.110698234855
CG3RC1 CG2O7  1  0.308518226092  0.100764063435
CG3RC1 CG2R51  1  0.356359487256  0.093557084179
CG3RC1 CG2R52  1  0.365268474438  0.059170695450
CG3RC1 CG2R53  1  0.365268474438  0.059170695450
CG3RC1 CG2R57  1  0.356359487256  0.093557084179
CG3RC1 CG25C1  1  0.355468588538  0.109105371453
CG3RC1 CG25C2  1  0.355468588538  0.109105371453
CG3RC1 CG251O  1  0.355468588538  0.109105371453
CG3RC1 CG252O  1  0.355468588538  0.109105371453
CG3RC1 CG2R61  1  0.346773417049  0.110698234855
CG3RC1 CG2R62  1  0.338541512893  0.125520000000
CG3RC1 CG2R63  1  0.338541512893  0.132309697301
CG3RC1 CG2R64  1  0.356359487256  0.083680000000
CG3RC1 CG2R66  1  0.338541512893  0.110698234855
CG3RC1 CG2R67  1  0.346773417049  0.110698234855
CG3RC1 CG2RC0  1  0.334977918021  0.131646486622
CG3RC1 CG2R71  1  0.346987232741  0.108300154755
CG3RC1 CG2RC7  1  0.334977918021  0.131646486622
CG3RC1 CG301  1  0.338541512893  0.041840000000
CG3RC1 CG302  1  0.374177461619  0.059170695450
CG3RC1 CG311  1  0.338541512893  0.041840000000
CG3RC1 CG312  1  0.351904993665  0.085746484010
CG3RC1 CG314  1  0.338541512893  0.041840000000
CG3RC1 CG321  1  0.338541512893  0.041840000000
CG3RC1 CG322  1  0.338541512893  0.102486650838
CG3RC1 CG323  1  0.365268474438  0.138767581228
CG3RC1 CG324  1  0.338541512893  0.041840000000
CG3RC1 CG331  1  0.338541512893  0.041840000000
CG3RC1 CG334  1  0.338541512893  0.041840000000
CG3RC1 CG3C50  1  0.338541512893  0.041840000000
CG3RC1 CG3C51  1  0.338541512893  0.041840000000
CG3RC1 CG3C52  1  0.338541512893  0.041840000000
CG3RC1 CG3C53  1  0.338541512893  0.041840000000
CG3RC1 CG3C54  1  0.338541512893  0.041840000000
CG3RC1 CG3C31  1  0.338541512893  0.041840000000
CG3RC1 CG3C41  1  0.338541512893  0.041840000000
CG3RC1 CG3RC1  1  0.338541512893  0.041840000000
CG3RC1 CG3AM0  1  0.344777803920  0.110698234855
CG3RC1 CG3AM1  1  0.345668702638  0.116852760686
CG3RC1 CG3AM2  1  0.346559601357  0.118341390899
CG3RC1 NG1T1  1  0.328741626994  0.177512086349
CG3RC1 NG2D1  1  0.334087019303  0.187114168357
CG3RC1 NG2S0  1  0.334087019303  0.004184000000
CG3RC1 NG2S1  1  0.307360057758  0.187114168357
CG3RC1 NG2S2  1  0.334087019303  0.187114168357
CG3RC1 NG2S3  1  0.334087019303  0.187114168357
CG3RC1 NG2O1  1  0.334087019303  0.187114168357
CG3RC1 NG2P1  1  0.334087019303  0.187114168357
CG3RC1 NG2R43  1  0.334087019303  0.187114168357
CG3RC1 NG2R50  1  0.334087019303  0.187114168357
CG3RC1 NG2R51  1  0.334087019303  0.187114168357
CG3RC1 NG2R52  1  0.334087019303  0.187114168357
CG3RC1 NG2R53  1  0.334087019303  0.187114168357
CG3RC1 NG2R57  1  0.334087019303  0.187114168357
CG3RC1 NG2R60  1  0.337650614175  0.102486650838
CG3RC1 NG2R61  1  0.334087019303  0.187114168357
CG3RC1 NG2R62  1  0.352795892384  0.093557084179
CG3RC1 NG2R67  1  0.334087019303  0.187114168357
CG3RC1 NG2RC0  1  0.334087019303  0.187114168357
CG3RC1 NG301  1  0.347450500075  0.078275472531
CG3RC1 NG311  1  0.347450500075  0.088756043175
CG3RC1 NG321  1  0.346559601357  0.102486650838
CG3RC1 NG331  1  0.345668702638  0.110698234855
CG3RC1 NG3C51  1  0.334087019303  0.187114168357
CG3RC1 NG3N1  1  0.351904993665  0.102486650838
CG3RC1 NG3P0  1  0.334087019303  0.187114168357
CG3RC1 NG3P1  1  0.334087019303  0.187114168357
CG3RC1 NG3P2  1  0.334087019303  0.187114168357
CG3RC1 NG3P3  1  0.334087019303  0.187114168357
CG3RC1 OG2D1  1  0.293996576986  0.144938011577
CG3RC1 OG2D2  1  0.320723538531  0.144938011577
CG3RC1 OG2D3  1  0.293996576986  0.144938011577
CG3RC1 OG2D4  1  0.320723538531  0.144938011577
CG3RC1 OG2D5  1  0.320010819556  0.169954883425
CG3RC1 OG2N1  1  0.320723538531  0.144938011577
CG3RC1 OG2P1  1  0.320723538531  0.144938011577
CG3RC1 OG2R50  1  0.320723538531  0.144938011577
CG3RC1 OG3R60  1  0.316269044940  0.132309697301
CG3RC1 OG301  1  0.316269044940  0.132309697301
CG3RC1 OG302  1  0.316269044940  0.132309697301
CG3RC1 OG303  1  0.316269044940  0.132309697301
CG3RC1 OG304  1  0.316269044940  0.132309697301
CG3RC1 OG311  1  0.326514380198  0.183381431383
CG3RC1 OG312  1  0.325178032121  0.144938011577
CG3RC1 OG3C31  1  0.316269044940  0.132309697301
CG3RC1 OG3C51  1  0.316269044940  0.132309697301
CG3RC1 OG3C61  1  0.316269044940  0.132309697301
CG3RC1 OGTIP3  1  0.326799467788  0.163176000000
CG3RC1 SG2D1  1  0.351904993665  0.314496560236
CG3RC1 SG2R50  1  0.347450500075  0.280671252536
CG3RC1 SG311  1  0.347450500075  0.280671252536
CG3RC1 SG301  1  0.345223253279  0.257919081884
CG3RC1 SG302  1  0.365268474438  0.286840588481
CG3RC1 SG3O1  1  0.356359487256  0.286840588481
CG3RC1 SG3O2  1  0.347450500075  0.247528778125
CG3RC1 SG3O3  1  0.347450500075  0.247528778125
CG3RC1  FGA1  1  0.314487247504  0.153729976257
CG3RC1  FGA2  1  0.314487247504  0.135577095411
CG3RC1  FGA3  1  0.311814551349  0.130309939452
CG3RC1  FGP1  1  0.311814551349  0.130309939452
CG3RC1  FGR1  1  0.320723538531  0.144938011577
CG3RC1 CLGA1  1  0.339432411611  0.245040988571
CG3RC1 CLGA3  1  0.339432411611  0.232955260941
CG3RC1 BRGA1  1  0.344777803920  0.289876023155
CG3RC1 BRGA2  1  0.351904993665  0.304599797767
CG3RC1 BRGA3  1  0.347450500075  0.307459952514
CG3RC1   SOD  1  0.294954293108  0.090610410351
CG3RC1   CLA  1  0.371504765465  0.162045623205
CG3RC1   PG0  1  0.360813980847  0.320014464673
CG3RC1   PG1  1  0.360813980847  0.320014464673
CG3RC1   PG2  1  0.360813980847  0.320014464673
CG3RC1  ALG1  1  0.347450500075  0.337324864189
CG3RC1   LPH  1  0.169270756447  0.000000000000
CG3RC1 CLGR1  1  0.334977918021  0.200657590935
CG3RC1 BRGR1  1  0.345668702638  0.236682781799
CG3RC1  IGR1  1  0.368832069310  0.301712530731
CG3RC1 SG2P1  1  0.355798221064  0.332305491450
CG3RC1 OG2S1  1  0.318906105146  0.157831660601
CG3RC1 SG2P2  1  0.352314807076  0.329421919951
CG3RC1 SEGD1  1  0.363041227642  0.330244580395
CG3RC1 BG201  1  0.396449929572  0.081561175077
CG3RC1 CC301  1  0.338541512893  0.041840000000
CG3RC1 CC3062  1  0.338541512893  0.041840000000
CG3RC1 CC311  1  0.338541512893  0.041840000000
CG3RC1 CC3161  1  0.338541512893  0.041840000000
CG3RC1 CC3162  1  0.338541512893  0.041840000000
CG3RC1 CC3163  1  0.338541512893  0.041840000000
CG3RC1 CC321  1  0.338541512893  0.041840000000
CG3RC1 CC3261  1  0.338541512893  0.041840000000
CG3RC1 CC3263  1  0.338541512893  0.041840000000
CG3RC1 CC331  1  0.338541512893  0.041840000000
CG3RC1 CC2O1  1  0.347450500075  0.138767581228
CG3RC1 CC2O2  1  0.347450500075  0.110698234855
CG3RC1 CC2O3  1  0.347450500075  0.125520000000
CG3RC1 CC2O4  1  0.329632525712  0.102486650838
CG3RC1 CC2O5  1  0.320723538531  0.130979917850
CG3RC1 OC2D1  1  0.293996576986  0.144938011577
CG3RC1 OC2D2  1  0.320723538531  0.144938011577
CG3RC1 OC2D3  1  0.293996576986  0.144938011577
CG3RC1 OC2D4  1  0.293996576986  0.144938011577
CG3RC1 OC3C61  1  0.316269044940  0.132309697301
CG3RC1 OC311  1  0.326514380198  0.183381431383
CG3RC1 NC2D1  1  0.307360057758  0.187114168357
CG3RC1  HCP1  1  0.189271432669  0.089736802707
CG3RC1  HCA1  1  0.288651184677  0.088756043175
CG3RC1  HCA2  1  0.288651184677  0.078275472531
CG3RC1  HCA3  1  0.288651184677  0.064818249282
CG3RC1 CC312  1  0.338541512893  0.041840000000
CG3RC1 CC322  1  0.338541512893  0.041840000000
CG3RC1  HCR1  1  0.240542653898  0.089736802707
CG3RC1 HCA3M  1  0.288651184677  0.064818249282
CG3RC1 CC321C  1  0.338541512893  0.041840000000
CG3RC1 CC321D  1  0.338541512893  0.041840000000
CG3RC1 CC311C  1  0.338541512893  0.041840000000
CG3RC1 CC311D  1  0.338541512893  0.041840000000
CG3RC1 OC301  1  0.316269044940  0.132309697301
CG3RC1 OC302  1  0.316269044940  0.132309697301
CG3RC1 HCP1M  1  0.189271432669  0.089736802707
CG3RC1 OC311M  1  0.326514380198  0.183381431383
CG3RC1 OC3C5M  1  0.316269044940  0.132309697301
CG3RC1 CC322C  1  0.338541512893  0.041840000000
CG3RC1 HCA2C2  1  0.285087589805  0.078275472531
CG3RC1 CC312C  1  0.338541512893  0.041840000000
CG3RC1 HCA1C2  1  0.288651184677  0.088756043175
CG3RC1 OC3C51  1  0.316269044940  0.132309697301
CG3RC1 CC3152  1  0.338541512893  0.041840000000
CG3RC1 CC3051  1  0.338541512893  0.041840000000
CG3RC1 CC3251  1  0.338541512893  0.041840000000
CG3RC1 CC3151  1  0.338541512893  0.041840000000
CG3RC1 CC3153  1  0.338541512893  0.041840000000
CG3RC1 OC2DP  1  0.320723538531  0.144938011577
CG3RC1 OC312  1  0.326959829558  0.163176000000
CG3RC1 OC30P  1  0.326959829558  0.163176000000
CG3RC1    PC  1  0.360813980847  0.320014464673
CG3RC1    SC  1  0.356359487256  0.286840588481
CG3RC1 CC312D  1  0.338541512893  0.041840000000
CG3RC1 OC303  1  0.316269044940  0.132309697301
CG3RC1 NC311  1  0.347450500075  0.088756043175
CG3RC1   HN1  1  0.189271432669  0.089736802707
CG3RC1   HN2  1  0.189271432669  0.089736802707
CG3RC1   HN3  1  0.267269615442  0.089736802707
CG3RC1   HN4  1  0.189271432669  0.089736802707
CG3RC1   HN5  1  0.189271432669  0.089736802707
CG3RC1   HN6  1  0.286869387241  0.062058748940
CG3RC1   HN7  1  0.286869387241  0.062058748940
CG3RC1   HN8  1  0.288651184677  0.070011711020
CG3RC1   HN9  1  0.288651184677  0.064818249282
CG3RC1   NN1  1  0.334087019303  0.187114168357
CG3RC1   NN2  1  0.334087019303  0.187114168357
CG3RC1  NN2B  1  0.334087019303  0.187114168357
CG3RC1  NN2G  1  0.334087019303  0.187114168357
CG3RC1  NN2U  1  0.334087019303  0.187114168357
CG3RC1   NN3  1  0.334087019303  0.187114168357
CG3RC1  NN3A  1  0.334087019303  0.187114168357
CG3RC1  NN3G  1  0.334087019303  0.187114168357
CG3RC1   NN4  1  0.334087019303  0.187114168357
CG3RC1   NN6  1  0.334087019303  0.187114168357
CG3RC1   ON1  1  0.320723538531  0.144938011577
CG3RC1  ON1C  1  0.320723538531  0.144938011577
CG3RC1   ON2  1  0.326959829558  0.163176000000
CG3RC1   ON3  1  0.320723538531  0.144938011577
CG3RC1   ON4  1  0.326959829558  0.163176000000
CG3RC1   ON5  1  0.326959829558  0.163176000000
CG3RC1   ON6  1  0.326959829558  0.163176000000
CG3RC1  ON6B  1  0.326959829558  0.163176000000
CG3RC1   CN1  1  0.338541512893  0.132309697301
CG3RC1  CN1T  1  0.338541512893  0.132309697301
CG3RC1   CN2  1  0.338541512893  0.132309697301
CG3RC1   CN3  1  0.338541512893  0.125520000000
CG3RC1  CN3T  1  0.338541512893  0.125520000000
CG3RC1   CN4  1  0.338541512893  0.114583559030
CG3RC1   CN5  1  0.338541512893  0.114583559030
CG3RC1  CN5G  1  0.338541512893  0.114583559030
CG3RC1   CN7  1  0.338541512893  0.041840000000
CG3RC1  CN7B  1  0.338541512893  0.041840000000
CG3RC1   CN8  1  0.338541512893  0.041840000000
CG3RC1  CN8B  1  0.338541512893  0.041840000000
CG3RC1   CN9  1  0.338541512893  0.041840000000
CG3RC1     P  1  0.360813980847  0.320014464673
CG3RC1    P2  1  0.360813980847  0.320014464673
CG3RC1    P3  1  0.360813980847  0.320014464673
CG3RC1    P4  1  0.360813980847  0.320014464673
CG3RC1   HOL  1  0.189271432669  0.089736802707
CG3RC1  HAL1  1  0.286869387241  0.062058748940
CG3RC1  HAL2  1  0.288651184677  0.070011711020
CG3RC1  HAL3  1  0.288651184677  0.064818249282
CG3RC1   HBL  1  0.286869387241  0.062058748940
CG3RC1   HCL  1  0.189271432669  0.089736802707
CG3RC1    HL  1  0.231633666716  0.089736802707
CG3RC1  HEL1  1  0.280633096214  0.073666921749
CG3RC1  HEL2  1  0.281523994932  0.067464972838
CG3RC1    CL  1  0.347450500075  0.110698234855
CG3RC1   CCL  1  0.347450500075  0.110698234855
CG3RC1  CTL1  1  0.338541512893  0.041840000000
CG3RC1  CTL2  1  0.338541512893  0.041840000000
CG3RC1  CTL3  1  0.338541512893  0.041840000000
CG3RC1  CTL5  1  0.338541512893  0.041840000000
CG3RC1  CEL1  1  0.355468588538  0.109105371453
CG3RC1  CEL2  1  0.354577689820  0.105847757841
CG3RC1  CRL1  1  0.338541512893  0.041840000000
CG3RC1  CRL2  1  0.338541512893  0.041840000000
CG3RC1   OBL  1  0.293996576986  0.144938011577
CG3RC1   OCL  1  0.320723538531  0.144938011577
CG3RC1   O2L  1  0.320723538531  0.144938011577
CG3RC1   OHL  1  0.326959829558  0.163176000000
CG3RC1   OSL  1  0.316269044940  0.132309697301
CG3RC1  OSLP  1  0.316269044940  0.132309697301
CG3RC1  NH3L  1  0.334087019303  0.187114168357
CG3RC1   NTL  1  0.334087019303  0.187114168357
CG3RC1    SL  1  0.356359487256  0.286840588481
CG3RC1    PL  1  0.360813980847  0.320014464673
CG3RC1 HCA1A  1  0.288651184677  0.088756043175
CG3RC1 HCA2A  1  0.288651184677  0.078275472531
CG3RC1 HCA3A  1  0.288651184677  0.064818249282
CG3RC1 CC30A  1  0.338541512893  0.041840000000
CG3RC1 CC31A  1  0.338541512893  0.041840000000
CG3RC1 CC32A  1  0.338541512893  0.041840000000
CG3RC1 CC33A  1  0.338541512893  0.041840000000
CG3RC1 CC326A  1  0.338541512893  0.041840000000
CG3RC1 HCA25A  1  0.285087589805  0.078275472531
CG3RC1 CC325A  1  0.338541512893  0.041840000000
CG3RC1 CC325B  1  0.338541512893  0.041840000000
CG3RC1 OC305A  1  0.316269044940  0.132309697301
CG3RC1 OC30A  1  0.316269044940  0.132309697301
CG3RC1  HSIO  1  0.189271432669  0.089736802707
CG3RC1  HSIA  1  0.286869387241  0.062058748940
CG3RC1   HAL  1  0.286869387241  0.062058748940
CG3RC1    AL  1  0.365268474438  0.337324864189
CG3RC1    SI  1  0.365268474438  0.324091246411
CG3RC1  SIH3  1  0.365268474438  0.324091246411
CG3RC1  OSIH  1  0.326959829558  0.163176000000
CG3RC1  OSIE  1  0.326959829558  0.163176000000
CG3RC1  OSIA  1  0.326959829558  0.163176000000
CG3RC1   OAL  1  0.326959829558  0.163176000000
CG3RC1    HT  1  0.189271432669  0.089736802707
CG3RC1    OT  1  0.326799467788  0.163176000000
CG3RC1   DUM  1  0.169270756447  0.000000000000
CG3RC1    CM  1  0.356359487256  0.138767581228
CG3RC1   CPA  1  0.329632525712  0.125520000000
CG3RC1   CPB  1  0.329632525712  0.125520000000
CG3RC1   CPM  1  0.329632525712  0.125520000000
CG3RC1   CST  1  0.308518226092  0.100764063435
CG3RC1  CT1X  1  0.338541512893  0.041840000000
CG3RC1  CT2X  1  0.338541512893  0.041840000000
CG3RC1  CT3X  1  0.338541512893  0.041840000000
CG3RC1    HB  1  0.286869387241  0.062058748940
CG3RC1   NPH  1  0.334087019303  0.187114168357
CG3RC1    OM  1  0.320723538531  0.144938011577
CG3RC1   OST  1  0.320010819556  0.169954883425
CG3RC1   POT  1  0.326403017859  0.123410269913
CG3RC1   CAL  1  0.291056611216  0.144938011577
CG3RC1    MG  1  0.274842254546  0.051243325419
CG3RC1   CES  1  0.356359487256  0.182376331798
CG3RC1    ZN  1  0.266378716724  0.209200000000
CG3RC1    FE  1  0.227179173126  0.000000000000
CG3RC1    HE  1  0.301123766731  0.061020452073
CG3RC1    NE  1  0.305578260322  0.122698965603
CG3RC1  CLAL  1  0.339272049842  0.072469005789
CG3RC1    AG  1  0.300901042052  0.893457908130
CG3RC1    AU  1  0.300722862308  0.962320000000
CG3RC1    CU  1  0.285800308779  0.908997471504
CG3RC1    NI  1  0.282949432881  0.994525446633
CG3RC1    PB  1  0.328073452955  0.716185437439
CG3RC1    PD  1  0.294842930769  1.037598257516
CG3RC1    PT  1  0.296001099102  1.168527606863
CG3RC1   CAP  1  0.346773417049  0.110698234855
CG3RC1    FA  1  0.320723538531  0.144938011577
CG3RC1    CN  1  0.325178032121  0.187114168357
CG3RC1    NC  1  0.334087019303  0.324091246411
CG3RC1   OCA  1  0.293996576986  0.144938011577
CG3RC1   COA  1  0.347450500075  0.138767581228
CG3RC1   CF1  1  0.338541512893  0.102486650838
CG3RC1   CF2  1  0.351904993665  0.085746484010
CG3RC1   CF3  1  0.374177461619  0.059170695450
CG3RC1   HF1  1  0.286869387241  0.070011711020
CG3RC1   HF2  1  0.285087589805  0.072469005789
CG3RC1    F1  1  0.314487247504  0.153729976257
CG3RC1    F2  1  0.314487247504  0.135577095411
CG3RC1    F3  1  0.311814551349  0.130309939452
CG3RC1    OX  1  0.320723538531  0.144938011577
CG3RC1    HX  1  0.189271432669  0.089736802707
CG3RC1  HPER  1  0.189271432669  0.089736802707
CG3RC1  OPER  1  0.318427692534  0.188901923946
CG3RC1   LIT  1  0.284864865125  0.020196198771
CG3RC1   RUB  1  0.338541512893  0.162045623205
CG3RC1   BAR  1  0.337650614175  0.162045623205
CG3RC1   CAD  1  0.290165712498  0.144938011577
CG3RC1  ON2B  1  0.326959829558  0.163176000000
CG3RC1    SP  1  0.365268474438  0.280671252536
CG3RC1   HNP  1  0.290272620344  0.072469005789
CG3RC1  HNE1  1  0.280633096214  0.073666921749
CG3RC1  HNE2  1  0.281523994932  0.067464972838
CG3RC1  CN3D  1  0.338541512893  0.125520000000
CG3RC1  CNE1  1  0.355468588538  0.109105371453
CG3RC1  CNE2  1  0.354577689820  0.105847757841
CG3RC1   CNA  1  0.346773417049  0.110698234855
CG3RC1  CNA2  1  0.338541512893  0.110698234855
CG3RC1   CNG  1  0.347450500075  0.138767581228
CG3RC1  NN1C  1  0.334087019303  0.187114168357
CG3RC1  NN2C  1  0.334087019303  0.187114168357
CG3RC1  NN3I  1  0.334087019303  0.187114168357
CG3RC1   NNG  1  0.334087019303  0.187114168357
CG3RC1   FNA  1  0.320723538531  0.144938011577
CG3RC1  ON2M  1  0.316269044940  0.132309697301
CG3RC1   CN6  1  0.338541512893  0.041840000000
CG3RC1  CN7E  1  0.338541512893  0.041840000000
CG3RC1  CT2P  1  0.338541512893  0.041840000000
CG3RC1  CTD1  1  0.338541512893  0.041840000000
CG3RC1  CPD1  1  0.338541512893  0.041840000000
CG3RC1  CC1A  1  0.355468588538  0.109105371453
CG3RC1  CC1B  1  0.355468588538  0.109105371453
CG3RC1   CC2  1  0.354577689820  0.105847757841
CG3RC1   NS1  1  0.334087019303  0.187114168357
CG3RC1   NS2  1  0.334087019303  0.187114168357
CG3RC1   NHL  1  0.307360057758  0.187114168357
CG3RC1  CTO1  1  0.338541512893  0.041840000000
CG3RC1  CEL3  1  0.355468588538  0.109105371453
CG3RC1  CTO2  1  0.338541512893  0.041840000000
CG3RC1  HN3B  1  0.249451641079  0.089736802707
CG3RC1  CN1A  1  0.347450500075  0.110698234855
CG3RC1  CN3A  1  0.329632525712  0.177512086349
CG3RC1  CN3B  1  0.329632525712  0.177512086349
CG3RC1  CN3C  1  0.329632525712  0.177512086349
NG2S0     C  1  0.342996006484  0.013876758123
NG2S0    CA  1  0.342318923458  0.011069823485
NG2S0    CC  1  0.342996006484  0.011069823485
NG2S0    CD  1  0.342996006484  0.011069823485
NG2S0   CE1  1  0.351014094947  0.010910537145
NG2S0   CE2  1  0.350123196229  0.010584775784
NG2S0   CP1  1  0.334087019303  0.004184000000
NG2S0   CP2  1  0.334087019303  0.004184000000
NG2S0   CP3  1  0.334087019303  0.004184000000
NG2S0  CPH1  1  0.325178032121  0.009355708418
NG2S0  CPH2  1  0.325178032121  0.009355708418
NG2S0    CS  1  0.360813980847  0.013876758123
NG2S0   CPT  1  0.330523424430  0.013164648662
NG2S0    CY  1  0.342105107766  0.011304545493
NG2S0   CAI  1  0.342105107766  0.011304545493
NG2S0    CT  1  0.334087019303  0.004184000000
NG2S0   CT1  1  0.334087019303  0.004184000000
NG2S0   CT2  1  0.334087019303  0.004184000000
NG2S0  CT2A  1  0.334087019303  0.004184000000
NG2S0   CT3  1  0.334087019303  0.004184000000
NG2S0    C3  1  0.367495721233  0.005917069545
NG2S0     H  1  0.184816939078  0.008973680271
NG2S0    HA  1  0.282414893650  0.006205874894
NG2S0   HB1  1  0.282414893650  0.006205874894
NG2S0   HB2  1  0.284196691087  0.007001171102
NG2S0   HE1  1  0.276178602624  0.007366692175
NG2S0   HE2  1  0.277069501342  0.006746497284
NG2S0    HC  1  0.184816939078  0.008973680271
NG2S0    HP  1  0.285818126754  0.007246900579
NG2S0   HR1  1  0.244997147489  0.008973680271
NG2S0   HR2  1  0.227179173126  0.008973680271
NG2S0   HR3  1  0.295600194679  0.003695208746
NG2S0    HS  1  0.204906705172  0.013230969730
NG2S0   HA1  1  0.284196691087  0.008875604317
NG2S0   HA2  1  0.284196691087  0.007714914802
NG2S0   HA3  1  0.284196691087  0.006481824928
NG2S0     N  1  0.329632525712  0.000418400000
NG2S0   NC2  1  0.329632525712  0.018711416836
NG2S0   NH1  1  0.302905564168  0.018711416836
NG2S0   NH2  1  0.329632525712  0.018711416836
NG2S0   NH3  1  0.329632525712  0.018711416836
NG2S0    NP  1  0.329632525712  0.018711416836
NG2S0   NR1  1  0.329632525712  0.018711416836
NG2S0   NR2  1  0.329632525712  0.018711416836
NG2S0   NR3  1  0.329632525712  0.018711416836
NG2S0    NY  1  0.329632525712  0.018711416836
NG2S0     O  1  0.289542083396  0.014493801158
NG2S0    OB  1  0.289542083396  0.014493801158
NG2S0    OC  1  0.316269044940  0.014493801158
NG2S0   OH1  1  0.322505335967  0.016317600000
NG2S0    OS  1  0.322505335967  0.016317600000
NG2S0     S  1  0.342996006484  0.028067125254
NG2S0    SM  1  0.340768759689  0.025791908188
NG2S0    SS  1  0.360813980847  0.028684058848
NG2S0  HGA1  1  0.284196691087  0.008875604317
NG2S0  HGA2  1  0.284196691087  0.007827547253
NG2S0  HGA3  1  0.284196691087  0.006481824928
NG2S0  HGA4  1  0.276178602624  0.007366692175
NG2S0  HGA5  1  0.277069501342  0.006746497284
NG2S0  HGA6  1  0.282414893650  0.007001171102
NG2S0  HGA7  1  0.280633096214  0.007246900579
NG2S0 HGAAM0  1  0.278851298778  0.007001171102
NG2S0 HGAAM1  1  0.278851298778  0.007001171102
NG2S0 HGAAM2  1  0.277069501342  0.008368000000
NG2S0  HGP1  1  0.184816939078  0.008973680271
NG2S0  HGP2  1  0.184816939078  0.008973680271
NG2S0  HGP3  1  0.204906705172  0.013230969730
NG2S0  HGP4  1  0.184816939078  0.008973680271
NG2S0  HGP5  1  0.227179173126  0.008973680271
NG2S0 HGPAM1  1  0.242769900693  0.003969290919
NG2S0 HGPAM2  1  0.242769900693  0.004184000000
NG2S0 HGPAM3  1  0.242324451334  0.004583342361
NG2S0 HGR51  1  0.285818126754  0.007246900579
NG2S0 HGR52  1  0.244997147489  0.008973680271
NG2S0 HGR53  1  0.227179173126  0.008973680271
NG2S0 HGR61  1  0.285818126754  0.007246900579
NG2S0 HGR62  1  0.262815121851  0.008973680271
NG2S0 HGR63  1  0.244997147489  0.008973680271
NG2S0 HGR71  1  0.285818126754  0.007246900579
NG2S0 HGTIP3  1  0.184816939078  0.008973680271
NG2S0 CG1T1  1  0.328741626994  0.017098181049
NG2S0 CG1T2  1  0.342327832445  0.013440998249
NG2S0 CG1N1  1  0.331414323148  0.017751208635
NG2S0 CG2D1  1  0.351014094947  0.010910537145
NG2S0 CG2D2  1  0.350123196229  0.010584775784
NG2S0 CG2D1O  1  0.351014094947  0.010910537145
NG2S0 CG2D2O  1  0.351014094947  0.010910537145
NG2S0 CG2DC1  1  0.351014094947  0.010910537145
NG2S0 CG2DC2  1  0.351014094947  0.010910537145
NG2S0 CG2DC3  1  0.350123196229  0.010584775784
NG2S0 CG2N1  1  0.342996006484  0.013876758123
NG2S0 CG2N2  1  0.342996006484  0.013876758123
NG2S0 CG2O1  1  0.342996006484  0.013876758123
NG2S0 CG2O2  1  0.316269044940  0.013097991785
NG2S0 CG2O3  1  0.342996006484  0.011069823485
NG2S0 CG2O4  1  0.325178032121  0.010248665084
NG2S0 CG2O5  1  0.342996006484  0.012552000000
NG2S0 CG2O6  1  0.342996006484  0.011069823485
NG2S0 CG2O7  1  0.304063732501  0.010076406344
NG2S0 CG2R51  1  0.351904993665  0.009355708418
NG2S0 CG2R52  1  0.360813980847  0.005917069545
NG2S0 CG2R53  1  0.360813980847  0.005917069545
NG2S0 CG2R57  1  0.351904993665  0.009355708418
NG2S0 CG25C1  1  0.351014094947  0.010910537145
NG2S0 CG25C2  1  0.351014094947  0.010910537145
NG2S0 CG251O  1  0.351014094947  0.010910537145
NG2S0 CG252O  1  0.351014094947  0.010910537145
NG2S0 CG2R61  1  0.342318923458  0.011069823485
NG2S0 CG2R62  1  0.334087019303  0.012552000000
NG2S0 CG2R63  1  0.334087019303  0.013230969730
NG2S0 CG2R64  1  0.351904993665  0.008368000000
NG2S0 CG2R66  1  0.334087019303  0.011069823485
NG2S0 CG2R67  1  0.342318923458  0.011069823485
NG2S0 CG2RC0  1  0.330523424430  0.013164648662
NG2S0 CG2R71  1  0.342532739151  0.010830015476
NG2S0 CG2RC7  1  0.330523424430  0.013164648662
NG2S0 CG301  1  0.334087019303  0.004184000000
NG2S0 CG302  1  0.369722968028  0.005917069545
NG2S0 CG311  1  0.334087019303  0.004184000000
NG2S0 CG312  1  0.347450500075  0.008574648401
NG2S0 CG314  1  0.334087019303  0.004184000000
NG2S0 CG321  1  0.334087019303  0.004184000000
NG2S0 CG322  1  0.334087019303  0.010248665084
NG2S0 CG323  1  0.360813980847  0.013876758123
NG2S0 CG324  1  0.334087019303  0.004184000000
NG2S0 CG331  1  0.334087019303  0.004184000000
NG2S0 CG334  1  0.334087019303  0.004184000000
NG2S0 CG3C50  1  0.334087019303  0.004184000000
NG2S0 CG3C51  1  0.334087019303  0.004184000000
NG2S0 CG3C52  1  0.334087019303  0.004184000000
NG2S0 CG3C53  1  0.334087019303  0.004184000000
NG2S0 CG3C54  1  0.334087019303  0.004184000000
NG2S0 CG3C31  1  0.334087019303  0.004184000000
NG2S0 CG3C41  1  0.334087019303  0.004184000000
NG2S0 CG3RC1  1  0.334087019303  0.004184000000
NG2S0 CG3AM0  1  0.340323310330  0.011069823485
NG2S0 CG3AM1  1  0.341214209048  0.011685276069
NG2S0 CG3AM2  1  0.342105107766  0.011834139090
NG2S0 NG1T1  1  0.324287133403  0.017751208635
NG2S0 NG2D1  1  0.329632525712  0.018711416836
NG2S0 NG2S0  1  0.329632525712  0.000418400000
NG2S0 NG2S1  1  0.302905564168  0.018711416836
NG2S0 NG2S2  1  0.329632525712  0.018711416836
NG2S0 NG2S3  1  0.329632525712  0.018711416836
NG2S0 NG2O1  1  0.329632525712  0.018711416836
NG2S0 NG2P1  1  0.329632525712  0.018711416836
NG2S0 NG2R43  1  0.329632525712  0.018711416836
NG2S0 NG2R50  1  0.329632525712  0.018711416836
NG2S0 NG2R51  1  0.329632525712  0.018711416836
NG2S0 NG2R52  1  0.329632525712  0.018711416836
NG2S0 NG2R53  1  0.329632525712  0.018711416836
NG2S0 NG2R57  1  0.329632525712  0.018711416836
NG2S0 NG2R60  1  0.333196120584  0.010248665084
NG2S0 NG2R61  1  0.329632525712  0.018711416836
NG2S0 NG2R62  1  0.348341398793  0.009355708418
NG2S0 NG2R67  1  0.329632525712  0.018711416836
NG2S0 NG2RC0  1  0.329632525712  0.018711416836
NG2S0 NG301  1  0.342996006484  0.007827547253
NG2S0 NG311  1  0.342996006484  0.008875604317
NG2S0 NG321  1  0.342105107766  0.010248665084
NG2S0 NG331  1  0.341214209048  0.011069823485
NG2S0 NG3C51  1  0.329632525712  0.018711416836
NG2S0 NG3N1  1  0.347450500075  0.010248665084
NG2S0 NG3P0  1  0.329632525712  0.018711416836
NG2S0 NG3P1  1  0.329632525712  0.018711416836
NG2S0 NG3P2  1  0.329632525712  0.018711416836
NG2S0 NG3P3  1  0.329632525712  0.018711416836
NG2S0 OG2D1  1  0.289542083396  0.014493801158
NG2S0 OG2D2  1  0.316269044940  0.014493801158
NG2S0 OG2D3  1  0.289542083396  0.014493801158
NG2S0 OG2D4  1  0.316269044940  0.014493801158
NG2S0 OG2D5  1  0.315556325965  0.016995488342
NG2S0 OG2N1  1  0.316269044940  0.014493801158
NG2S0 OG2P1  1  0.316269044940  0.014493801158
NG2S0 OG2R50  1  0.316269044940  0.014493801158
NG2S0 OG3R60  1  0.311814551349  0.013230969730
NG2S0 OG301  1  0.311814551349  0.013230969730
NG2S0 OG302  1  0.311814551349  0.013230969730
NG2S0 OG303  1  0.311814551349  0.013230969730
NG2S0 OG304  1  0.311814551349  0.013230969730
NG2S0 OG311  1  0.322059886608  0.018338143138
NG2S0 OG312  1  0.320723538531  0.014493801158
NG2S0 OG3C31  1  0.311814551349  0.013230969730
NG2S0 OG3C51  1  0.311814551349  0.013230969730
NG2S0 OG3C61  1  0.311814551349  0.013230969730
NG2S0 OGTIP3  1  0.322344974198  0.016317600000
NG2S0 SG2D1  1  0.347450500075  0.031449656024
NG2S0 SG2R50  1  0.342996006484  0.028067125254
NG2S0 SG311  1  0.342996006484  0.028067125254
NG2S0 SG301  1  0.340768759689  0.025791908188
NG2S0 SG302  1  0.360813980847  0.028684058848
NG2S0 SG3O1  1  0.351904993665  0.028684058848
NG2S0 SG3O2  1  0.342996006484  0.024752877812
NG2S0 SG3O3  1  0.342996006484  0.024752877812
NG2S0  FGA1  1  0.310032753913  0.015372997626
NG2S0  FGA2  1  0.310032753913  0.013557709541
NG2S0  FGA3  1  0.307360057758  0.013030993945
NG2S0  FGP1  1  0.307360057758  0.013030993945
NG2S0  FGR1  1  0.316269044940  0.014493801158
NG2S0 CLGA1  1  0.334977918021  0.024504098857
NG2S0 CLGA3  1  0.334977918021  0.023295526094
NG2S0 BRGA1  1  0.340323310330  0.028987602315
NG2S0 BRGA2  1  0.347450500075  0.030459979777
NG2S0 BRGA3  1  0.342996006484  0.030745995251
NG2S0   SOD  1  0.290499799518  0.009061041035
NG2S0   CLA  1  0.367050271874  0.016204562321
NG2S0   PG0  1  0.356359487256  0.032001446467
NG2S0   PG1  1  0.356359487256  0.032001446467
NG2S0   PG2  1  0.356359487256  0.032001446467
NG2S0  ALG1  1  0.342996006484  0.033732486419
NG2S0   LPH  1  0.164816262856  0.000000000000
NG2S0 CLGR1  1  0.330523424430  0.020065759094
NG2S0 BRGR1  1  0.341214209048  0.023668278180
NG2S0  IGR1  1  0.364377575719  0.030171253073
NG2S0 SG2P1  1  0.351343727473  0.033230549145
NG2S0 OG2S1  1  0.314451611555  0.015783166060
NG2S0 SG2P2  1  0.347860313485  0.032942191995
NG2S0 SEGD1  1  0.358586734051  0.033024458039
NG2S0 BG201  1  0.391995435982  0.008156117508
NG2S0 CC301  1  0.334087019303  0.004184000000
NG2S0 CC3062  1  0.334087019303  0.004184000000
NG2S0 CC311  1  0.334087019303  0.004184000000
NG2S0 CC3161  1  0.334087019303  0.004184000000
NG2S0 CC3162  1  0.334087019303  0.004184000000
NG2S0 CC3163  1  0.334087019303  0.004184000000
NG2S0 CC321  1  0.334087019303  0.004184000000
NG2S0 CC3261  1  0.334087019303  0.004184000000
NG2S0 CC3263  1  0.334087019303  0.004184000000
NG2S0 CC331  1  0.334087019303  0.004184000000
NG2S0 CC2O1  1  0.342996006484  0.013876758123
NG2S0 CC2O2  1  0.342996006484  0.011069823485
NG2S0 CC2O3  1  0.342996006484  0.012552000000
NG2S0 CC2O4  1  0.325178032121  0.010248665084
NG2S0 CC2O5  1  0.316269044940  0.013097991785
NG2S0 OC2D1  1  0.289542083396  0.014493801158
NG2S0 OC2D2  1  0.316269044940  0.014493801158
NG2S0 OC2D3  1  0.289542083396  0.014493801158
NG2S0 OC2D4  1  0.289542083396  0.014493801158
NG2S0 OC3C61  1  0.311814551349  0.013230969730
NG2S0 OC311  1  0.322059886608  0.018338143138
NG2S0 NC2D1  1  0.302905564168  0.018711416836
NG2S0  HCP1  1  0.184816939078  0.008973680271
NG2S0  HCA1  1  0.284196691087  0.008875604317
NG2S0  HCA2  1  0.284196691087  0.007827547253
NG2S0  HCA3  1  0.284196691087  0.006481824928
NG2S0 CC312  1  0.334087019303  0.004184000000
NG2S0 CC322  1  0.334087019303  0.004184000000
NG2S0  HCR1  1  0.236088160307  0.008973680271
NG2S0 HCA3M  1  0.284196691087  0.006481824928
NG2S0 CC321C  1  0.334087019303  0.004184000000
NG2S0 CC321D  1  0.334087019303  0.004184000000
NG2S0 CC311C  1  0.334087019303  0.004184000000
NG2S0 CC311D  1  0.334087019303  0.004184000000
NG2S0 OC301  1  0.311814551349  0.013230969730
NG2S0 OC302  1  0.311814551349  0.013230969730
NG2S0 HCP1M  1  0.184816939078  0.008973680271
NG2S0 OC311M  1  0.322059886608  0.018338143138
NG2S0 OC3C5M  1  0.311814551349  0.013230969730
NG2S0 CC322C  1  0.334087019303  0.004184000000
NG2S0 HCA2C2  1  0.280633096214  0.007827547253
NG2S0 CC312C  1  0.334087019303  0.004184000000
NG2S0 HCA1C2  1  0.284196691087  0.008875604317
NG2S0 OC3C51  1  0.311814551349  0.013230969730
NG2S0 CC3152  1  0.334087019303  0.004184000000
NG2S0 CC3051  1  0.334087019303  0.004184000000
NG2S0 CC3251  1  0.334087019303  0.004184000000
NG2S0 CC3151  1  0.334087019303  0.004184000000
NG2S0 CC3153  1  0.334087019303  0.004184000000
NG2S0 OC2DP  1  0.316269044940  0.014493801158
NG2S0 OC312  1  0.322505335967  0.016317600000
NG2S0 OC30P  1  0.322505335967  0.016317600000
NG2S0    PC  1  0.356359487256  0.032001446467
NG2S0    SC  1  0.351904993665  0.028684058848
NG2S0 CC312D  1  0.334087019303  0.004184000000
NG2S0 OC303  1  0.311814551349  0.013230969730
NG2S0 NC311  1  0.342996006484  0.008875604317
NG2S0   HN1  1  0.184816939078  0.008973680271
NG2S0   HN2  1  0.184816939078  0.008973680271
NG2S0   HN3  1  0.262815121851  0.008973680271
NG2S0   HN4  1  0.184816939078  0.008973680271
NG2S0   HN5  1  0.184816939078  0.008973680271
NG2S0   HN6  1  0.282414893650  0.006205874894
NG2S0   HN7  1  0.282414893650  0.006205874894
NG2S0   HN8  1  0.284196691087  0.007001171102
NG2S0   HN9  1  0.284196691087  0.006481824928
NG2S0   NN1  1  0.329632525712  0.018711416836
NG2S0   NN2  1  0.329632525712  0.018711416836
NG2S0  NN2B  1  0.329632525712  0.018711416836
NG2S0  NN2G  1  0.329632525712  0.018711416836
NG2S0  NN2U  1  0.329632525712  0.018711416836
NG2S0   NN3  1  0.329632525712  0.018711416836
NG2S0  NN3A  1  0.329632525712  0.018711416836
NG2S0  NN3G  1  0.329632525712  0.018711416836
NG2S0   NN4  1  0.329632525712  0.018711416836
NG2S0   NN6  1  0.329632525712  0.018711416836
NG2S0   ON1  1  0.316269044940  0.014493801158
NG2S0  ON1C  1  0.316269044940  0.014493801158
NG2S0   ON2  1  0.322505335967  0.016317600000
NG2S0   ON3  1  0.316269044940  0.014493801158
NG2S0   ON4  1  0.322505335967  0.016317600000
NG2S0   ON5  1  0.322505335967  0.016317600000
NG2S0   ON6  1  0.322505335967  0.016317600000
NG2S0  ON6B  1  0.322505335967  0.016317600000
NG2S0   CN1  1  0.334087019303  0.013230969730
NG2S0  CN1T  1  0.334087019303  0.013230969730
NG2S0   CN2  1  0.334087019303  0.013230969730
NG2S0   CN3  1  0.334087019303  0.012552000000
NG2S0  CN3T  1  0.334087019303  0.012552000000
NG2S0   CN4  1  0.334087019303  0.011458355903
NG2S0   CN5  1  0.334087019303  0.011458355903
NG2S0  CN5G  1  0.334087019303  0.011458355903
NG2S0   CN7  1  0.334087019303  0.004184000000
NG2S0  CN7B  1  0.334087019303  0.004184000000
NG2S0   CN8  1  0.334087019303  0.004184000000
NG2S0  CN8B  1  0.334087019303  0.004184000000
NG2S0   CN9  1  0.334087019303  0.004184000000
NG2S0     P  1  0.356359487256  0.032001446467
NG2S0    P2  1  0.356359487256  0.032001446467
NG2S0    P3  1  0.356359487256  0.032001446467
NG2S0    P4  1  0.356359487256  0.032001446467
NG2S0   HOL  1  0.184816939078  0.008973680271
NG2S0  HAL1  1  0.282414893650  0.006205874894
NG2S0  HAL2  1  0.284196691087  0.007001171102
NG2S0  HAL3  1  0.284196691087  0.006481824928
NG2S0   HBL  1  0.282414893650  0.006205874894
NG2S0   HCL  1  0.184816939078  0.008973680271
NG2S0    HL  1  0.227179173126  0.008973680271
NG2S0  HEL1  1  0.276178602624  0.007366692175
NG2S0  HEL2  1  0.277069501342  0.006746497284
NG2S0    CL  1  0.342996006484  0.011069823485
NG2S0   CCL  1  0.342996006484  0.011069823485
NG2S0  CTL1  1  0.334087019303  0.004184000000
NG2S0  CTL2  1  0.334087019303  0.004184000000
NG2S0  CTL3  1  0.334087019303  0.004184000000
NG2S0  CTL5  1  0.334087019303  0.004184000000
NG2S0  CEL1  1  0.351014094947  0.010910537145
NG2S0  CEL2  1  0.350123196229  0.010584775784
NG2S0  CRL1  1  0.334087019303  0.004184000000
NG2S0  CRL2  1  0.334087019303  0.004184000000
NG2S0   OBL  1  0.289542083396  0.014493801158
NG2S0   OCL  1  0.316269044940  0.014493801158
NG2S0   O2L  1  0.316269044940  0.014493801158
NG2S0   OHL  1  0.322505335967  0.016317600000
NG2S0   OSL  1  0.311814551349  0.013230969730
NG2S0  OSLP  1  0.311814551349  0.013230969730
NG2S0  NH3L  1  0.329632525712  0.018711416836
NG2S0   NTL  1  0.329632525712  0.018711416836
NG2S0    SL  1  0.351904993665  0.028684058848
NG2S0    PL  1  0.356359487256  0.032001446467
NG2S0 HCA1A  1  0.284196691087  0.008875604317
NG2S0 HCA2A  1  0.284196691087  0.007827547253
NG2S0 HCA3A  1  0.284196691087  0.006481824928
NG2S0 CC30A  1  0.334087019303  0.004184000000
NG2S0 CC31A  1  0.334087019303  0.004184000000
NG2S0 CC32A  1  0.334087019303  0.004184000000
NG2S0 CC33A  1  0.334087019303  0.004184000000
NG2S0 CC326A  1  0.334087019303  0.004184000000
NG2S0 HCA25A  1  0.280633096214  0.007827547253
NG2S0 CC325A  1  0.334087019303  0.004184000000
NG2S0 CC325B  1  0.334087019303  0.004184000000
NG2S0 OC305A  1  0.311814551349  0.013230969730
NG2S0 OC30A  1  0.311814551349  0.013230969730
NG2S0  HSIO  1  0.184816939078  0.008973680271
NG2S0  HSIA  1  0.282414893650  0.006205874894
NG2S0   HAL  1  0.282414893650  0.006205874894
NG2S0    AL  1  0.360813980847  0.033732486419
NG2S0    SI  1  0.360813980847  0.032409124641
NG2S0  SIH3  1  0.360813980847  0.032409124641
NG2S0  OSIH  1  0.322505335967  0.016317600000
NG2S0  OSIE  1  0.322505335967  0.016317600000
NG2S0  OSIA  1  0.322505335967  0.016317600000
NG2S0   OAL  1  0.322505335967  0.016317600000
NG2S0    HT  1  0.184816939078  0.008973680271
NG2S0    OT  1  0.322344974198  0.016317600000
NG2S0   DUM  1  0.164816262856  0.000000000000
NG2S0    CM  1  0.351904993665  0.013876758123
NG2S0   CPA  1  0.325178032121  0.012552000000
NG2S0   CPB  1  0.325178032121  0.012552000000
NG2S0   CPM  1  0.325178032121  0.012552000000
NG2S0   CST  1  0.304063732501  0.010076406344
NG2S0  CT1X  1  0.334087019303  0.004184000000
NG2S0  CT2X  1  0.334087019303  0.004184000000
NG2S0  CT3X  1  0.334087019303  0.004184000000
NG2S0    HB  1  0.282414893650  0.006205874894
NG2S0   NPH  1  0.329632525712  0.018711416836
NG2S0    OM  1  0.316269044940  0.014493801158
NG2S0   OST  1  0.315556325965  0.016995488342
NG2S0   POT  1  0.321948524268  0.012341026991
NG2S0   CAL  1  0.286602117626  0.014493801158
NG2S0    MG  1  0.270387760956  0.005124332542
NG2S0   CES  1  0.351904993665  0.018237633180
NG2S0    ZN  1  0.261924223133  0.020920000000
NG2S0    FE  1  0.222724679535  0.000000000000
NG2S0    HE  1  0.296669273141  0.006102045207
NG2S0    NE  1  0.301123766731  0.012269896560
NG2S0  CLAL  1  0.334817556252  0.007246900579
NG2S0    AG  1  0.296446548461  0.089345790813
NG2S0    AU  1  0.296268368718  0.096232000000
NG2S0    CU  1  0.281345815189  0.090899747150
NG2S0    NI  1  0.278494939291  0.099452544663
NG2S0    PB  1  0.323618959364  0.071618543744
NG2S0    PD  1  0.290388437178  0.103759825752
NG2S0    PT  1  0.291546605511  0.116852760686
NG2S0   CAP  1  0.342318923458  0.011069823485
NG2S0    FA  1  0.316269044940  0.014493801158
NG2S0    CN  1  0.320723538531  0.018711416836
NG2S0    NC  1  0.329632525712  0.032409124641
NG2S0   OCA  1  0.289542083396  0.014493801158
NG2S0   COA  1  0.342996006484  0.013876758123
NG2S0   CF1  1  0.334087019303  0.010248665084
NG2S0   CF2  1  0.347450500075  0.008574648401
NG2S0   CF3  1  0.369722968028  0.005917069545
NG2S0   HF1  1  0.282414893650  0.007001171102
NG2S0   HF2  1  0.280633096214  0.007246900579
NG2S0    F1  1  0.310032753913  0.015372997626
NG2S0    F2  1  0.310032753913  0.013557709541
NG2S0    F3  1  0.307360057758  0.013030993945
NG2S0    OX  1  0.316269044940  0.014493801158
NG2S0    HX  1  0.184816939078  0.008973680271
NG2S0  HPER  1  0.184816939078  0.008973680271
NG2S0  OPER  1  0.313973198943  0.018890192395
NG2S0   LIT  1  0.280410371535  0.002019619877
NG2S0   RUB  1  0.334087019303  0.016204562321
NG2S0   BAR  1  0.333196120584  0.016204562321
NG2S0   CAD  1  0.285711218908  0.014493801158
NG2S0  ON2B  1  0.322505335967  0.016317600000
NG2S0    SP  1  0.360813980847  0.028067125254
NG2S0   HNP  1  0.285818126754  0.007246900579
NG2S0  HNE1  1  0.276178602624  0.007366692175
NG2S0  HNE2  1  0.277069501342  0.006746497284
NG2S0  CN3D  1  0.334087019303  0.012552000000
NG2S0  CNE1  1  0.351014094947  0.010910537145
NG2S0  CNE2  1  0.350123196229  0.010584775784
NG2S0   CNA  1  0.342318923458  0.011069823485
NG2S0  CNA2  1  0.334087019303  0.011069823485
NG2S0   CNG  1  0.342996006484  0.013876758123
NG2S0  NN1C  1  0.329632525712  0.018711416836
NG2S0  NN2C  1  0.329632525712  0.018711416836
NG2S0  NN3I  1  0.329632525712  0.018711416836
NG2S0   NNG  1  0.329632525712  0.018711416836
NG2S0   FNA  1  0.316269044940  0.014493801158
NG2S0  ON2M  1  0.311814551349  0.013230969730
NG2S0   CN6  1  0.334087019303  0.004184000000
NG2S0  CN7E  1  0.334087019303  0.004184000000
NG2S0  CT2P  1  0.334087019303  0.004184000000
NG2S0  CTD1  1  0.334087019303  0.004184000000
NG2S0  CPD1  1  0.334087019303  0.004184000000
NG2S0  CC1A  1  0.351014094947  0.010910537145
NG2S0  CC1B  1  0.351014094947  0.010910537145
NG2S0   CC2  1  0.350123196229  0.010584775784
NG2S0   NS1  1  0.329632525712  0.018711416836
NG2S0   NS2  1  0.329632525712  0.018711416836
NG2S0   NHL  1  0.302905564168  0.018711416836
NG2S0  CTO1  1  0.334087019303  0.004184000000
NG2S0  CEL3  1  0.351014094947  0.010910537145
NG2S0  CTO2  1  0.334087019303  0.004184000000
NG2S0  HN3B  1  0.244997147489  0.008973680271
NG2S0  CN1A  1  0.342996006484  0.011069823485
NG2S0  CN3A  1  0.325178032121  0.017751208635
NG2S0  CN3B  1  0.325178032121  0.017751208635
NG2S0  CN3C  1  0.325178032121  0.017751208635
NG2S1     C  1  0.316269044940  0.620587489400
NG2S1    CA  1  0.315591961914  0.495057556250
NG2S1    CC  1  0.316269044940  0.495057556250
NG2S1    CD  1  0.316269044940  0.495057556250
NG2S1   CE1  1  0.324287133403  0.487934054561
NG2S1   CE2  1  0.323396234685  0.473365563598
NG2S1   CP1  1  0.307360057758  0.187114168357
NG2S1   CP2  1  0.307360057758  0.187114168357
NG2S1   CP3  1  0.307360057758  0.187114168357
NG2S1  CPH1  1  0.298451070577  0.418400000000
NG2S1  CPH2  1  0.298451070577  0.418400000000
NG2S1    CS  1  0.334087019303  0.620587489400
NG2S1   CPT  1  0.303796462886  0.588740986173
NG2S1    CY  1  0.315378146222  0.505554643535
NG2S1   CAI  1  0.315378146222  0.505554643535
NG2S1    CT  1  0.307360057758  0.187114168357
NG2S1   CT1  1  0.307360057758  0.187114168357
NG2S1   CT2  1  0.307360057758  0.187114168357
NG2S1  CT2A  1  0.307360057758  0.187114168357
NG2S1   CT3  1  0.307360057758  0.187114168357
NG2S1    C3  1  0.340768759689  0.264619394603
NG2S1     H  1  0.158089977534  0.401315181871
NG2S1    HA  1  0.255687932106  0.277535162457
NG2S1   HB1  1  0.255687932106  0.277535162457
NG2S1   HB2  1  0.257469729543  0.313101890125
NG2S1   HE1  1  0.249451641079  0.329448489449
NG2S1   HE2  1  0.250342539797  0.301712530731
NG2S1    HC  1  0.158089977534  0.401315181871
NG2S1    HP  1  0.259091165210  0.324091246411
NG2S1   HR1  1  0.218270185944  0.401315181871
NG2S1   HR2  1  0.200452211582  0.401315181871
NG2S1   HR3  1  0.268873233135  0.165254758963
NG2S1    HS  1  0.178179743628  0.591706954497
NG2S1   HA1  1  0.257469729543  0.396929091904
NG2S1   HA2  1  0.257469729543  0.345021478752
NG2S1   HA3  1  0.257469729543  0.289876023155
NG2S1     N  1  0.302905564168  0.018711416836
NG2S1   NC2  1  0.302905564168  0.836800000000
NG2S1   NH1  1  0.276178602624  0.836800000000
NG2S1   NH2  1  0.302905564168  0.836800000000
NG2S1   NH3  1  0.302905564168  0.836800000000
NG2S1    NP  1  0.302905564168  0.836800000000
NG2S1   NR1  1  0.302905564168  0.836800000000
NG2S1   NR2  1  0.302905564168  0.836800000000
NG2S1   NR3  1  0.302905564168  0.836800000000
NG2S1    NY  1  0.302905564168  0.836800000000
NG2S1     O  1  0.262815121851  0.648182492821
NG2S1    OB  1  0.262815121851  0.648182492821
NG2S1    OC  1  0.289542083396  0.648182492821
NG2S1   OH1  1  0.295778374423  0.729745256593
NG2S1    OS  1  0.295778374423  0.729745256593
NG2S1     S  1  0.316269044940  1.255200000000
NG2S1    SM  1  0.314041798144  1.153449199575
NG2S1    SS  1  0.334087019303  1.282790109098
NG2S1  HGA1  1  0.257469729543  0.396929091904
NG2S1  HGA2  1  0.257469729543  0.350058555102
NG2S1  HGA3  1  0.257469729543  0.289876023155
NG2S1  HGA4  1  0.249451641079  0.329448489449
NG2S1  HGA5  1  0.250342539797  0.301712530731
NG2S1  HGA6  1  0.255687932106  0.313101890125
NG2S1  HGA7  1  0.253906134670  0.324091246411
NG2S1 HGAAM0  1  0.252124337234  0.313101890125
NG2S1 HGAAM1  1  0.252124337234  0.313101890125
NG2S1 HGAAM2  1  0.250342539797  0.374228336714
NG2S1  HGP1  1  0.158089977534  0.401315181871
NG2S1  HGP2  1  0.158089977534  0.401315181871
NG2S1  HGP3  1  0.178179743628  0.591706954497
NG2S1  HGP4  1  0.158089977534  0.401315181871
NG2S1  HGP5  1  0.200452211582  0.401315181871
NG2S1 HGPAM1  1  0.216042939149  0.177512086349
NG2S1 HGPAM2  1  0.216042939149  0.187114168357
NG2S1 HGPAM3  1  0.215597489790  0.204973301676
NG2S1 HGR51  1  0.259091165210  0.324091246411
NG2S1 HGR52  1  0.218270185944  0.401315181871
NG2S1 HGR53  1  0.200452211582  0.401315181871
NG2S1 HGR61  1  0.259091165210  0.324091246411
NG2S1 HGR62  1  0.236088160307  0.401315181871
NG2S1 HGR63  1  0.218270185944  0.401315181871
NG2S1 HGR71  1  0.259091165210  0.324091246411
NG2S1 HGTIP3  1  0.158089977534  0.401315181871
NG2S1 CG1T1  1  0.302014665450  0.764653902364
NG2S1 CG1T2  1  0.315600870901  0.601099715388
NG2S1 CG1N1  1  0.304687361604  0.793858183809
NG2S1 CG2D1  1  0.324287133403  0.487934054561
NG2S1 CG2D2  1  0.323396234685  0.473365563598
NG2S1 CG2D1O  1  0.324287133403  0.487934054561
NG2S1 CG2D2O  1  0.324287133403  0.487934054561
NG2S1 CG2DC1  1  0.324287133403  0.487934054561
NG2S1 CG2DC2  1  0.324287133403  0.487934054561
NG2S1 CG2DC3  1  0.323396234685  0.473365563598
NG2S1 CG2N1  1  0.316269044940  0.620587489400
NG2S1 CG2N2  1  0.316269044940  0.620587489400
NG2S1 CG2O1  1  0.316269044940  0.620587489400
NG2S1 CG2O2  1  0.289542083396  0.585760000000
NG2S1 CG2O3  1  0.316269044940  0.495057556250
NG2S1 CG2O4  1  0.298451070577  0.458334236120
NG2S1 CG2O5  1  0.316269044940  0.561342505072
NG2S1 CG2O6  1  0.316269044940  0.495057556250
NG2S1 CG2O7  1  0.277336770957  0.450630591061
NG2S1 CG2R51  1  0.325178032121  0.418400000000
NG2S1 CG2R52  1  0.334087019303  0.264619394603
NG2S1 CG2R53  1  0.334087019303  0.264619394603
NG2S1 CG2R57  1  0.325178032121  0.418400000000
NG2S1 CG25C1  1  0.324287133403  0.487934054561
NG2S1 CG25C2  1  0.324287133403  0.487934054561
NG2S1 CG251O  1  0.324287133403  0.487934054561
NG2S1 CG252O  1  0.324287133403  0.487934054561
NG2S1 CG2R61  1  0.315591961914  0.495057556250
NG2S1 CG2R62  1  0.307360057758  0.561342505072
NG2S1 CG2R63  1  0.307360057758  0.591706954497
NG2S1 CG2R64  1  0.325178032121  0.374228336714
NG2S1 CG2R66  1  0.307360057758  0.495057556250
NG2S1 CG2R67  1  0.315591961914  0.495057556250
NG2S1 CG2RC0  1  0.303796462886  0.588740986173
NG2S1 CG2R71  1  0.315805777606  0.484333016013
NG2S1 CG2RC7  1  0.303796462886  0.588740986173
NG2S1 CG301  1  0.307360057758  0.187114168357
NG2S1 CG302  1  0.342996006484  0.264619394603
NG2S1 CG311  1  0.307360057758  0.187114168357
NG2S1 CG312  1  0.320723538531  0.383469934154
NG2S1 CG314  1  0.307360057758  0.187114168357
NG2S1 CG321  1  0.307360057758  0.187114168357
NG2S1 CG322  1  0.307360057758  0.458334236120
NG2S1 CG323  1  0.334087019303  0.620587489400
NG2S1 CG324  1  0.307360057758  0.187114168357
NG2S1 CG331  1  0.307360057758  0.187114168357
NG2S1 CG334  1  0.307360057758  0.187114168357
NG2S1 CG3C50  1  0.307360057758  0.187114168357
NG2S1 CG3C51  1  0.307360057758  0.187114168357
NG2S1 CG3C52  1  0.307360057758  0.187114168357
NG2S1 CG3C53  1  0.307360057758  0.187114168357
NG2S1 CG3C54  1  0.307360057758  0.187114168357
NG2S1 CG3C31  1  0.307360057758  0.187114168357
NG2S1 CG3C41  1  0.307360057758  0.187114168357
NG2S1 CG3RC1  1  0.307360057758  0.187114168357
NG2S1 CG3AM0  1  0.313596348785  0.495057556250
NG2S1 CG3AM1  1  0.314487247504  0.522581432506
NG2S1 CG3AM2  1  0.315378146222  0.529238789206
NG2S1 NG1T1  1  0.297560171859  0.793858183809
NG2S1 NG2D1  1  0.302905564168  0.836800000000
NG2S1 NG2S0  1  0.302905564168  0.018711416836
NG2S1 NG2S1  1  0.276178602624  0.836800000000
NG2S1 NG2S2  1  0.302905564168  0.836800000000
NG2S1 NG2S3  1  0.302905564168  0.836800000000
NG2S1 NG2O1  1  0.302905564168  0.836800000000
NG2S1 NG2P1  1  0.302905564168  0.836800000000
NG2S1 NG2R43  1  0.302905564168  0.836800000000
NG2S1 NG2R50  1  0.302905564168  0.836800000000
NG2S1 NG2R51  1  0.302905564168  0.836800000000
NG2S1 NG2R52  1  0.302905564168  0.836800000000
NG2S1 NG2R53  1  0.302905564168  0.836800000000
NG2S1 NG2R57  1  0.302905564168  0.836800000000
NG2S1 NG2R60  1  0.306469159040  0.458334236120
NG2S1 NG2R61  1  0.302905564168  0.836800000000
NG2S1 NG2R62  1  0.321614437249  0.418400000000
NG2S1 NG2R67  1  0.302905564168  0.836800000000
NG2S1 NG2RC0  1  0.302905564168  0.836800000000
NG2S1 NG301  1  0.316269044940  0.350058555102
NG2S1 NG311  1  0.316269044940  0.396929091904
NG2S1 NG321  1  0.315378146222  0.458334236120
NG2S1 NG331  1  0.314487247504  0.495057556250
NG2S1 NG3C51  1  0.302905564168  0.836800000000
NG2S1 NG3N1  1  0.320723538531  0.458334236120
NG2S1 NG3P0  1  0.302905564168  0.836800000000
NG2S1 NG3P1  1  0.302905564168  0.836800000000
NG2S1 NG3P2  1  0.302905564168  0.836800000000
NG2S1 NG3P3  1  0.302905564168  0.836800000000
NG2S1 OG2D1  1  0.262815121851  0.648182492821
NG2S1 OG2D2  1  0.289542083396  0.648182492821
NG2S1 OG2D3  1  0.262815121851  0.648182492821
NG2S1 OG2D4  1  0.289542083396  0.648182492821
NG2S1 OG2D5  1  0.288829364421  0.760061344893
NG2S1 OG2N1  1  0.289542083396  0.648182492821
NG2S1 OG2P1  1  0.289542083396  0.648182492821
NG2S1 OG2R50  1  0.289542083396  0.648182492821
NG2S1 OG3R60  1  0.285087589805  0.591706954497
NG2S1 OG301  1  0.285087589805  0.591706954497
NG2S1 OG302  1  0.285087589805  0.591706954497
NG2S1 OG303  1  0.285087589805  0.591706954497
NG2S1 OG304  1  0.285087589805  0.591706954497
NG2S1 OG311  1  0.295332925064  0.820106692766
NG2S1 OG312  1  0.293996576986  0.648182492821
NG2S1 OG3C31  1  0.285087589805  0.591706954497
NG2S1 OG3C51  1  0.285087589805  0.591706954497
NG2S1 OG3C61  1  0.285087589805  0.591706954497
NG2S1 OGTIP3  1  0.295618012653  0.729745256593
NG2S1 SG2D1  1  0.320723538531  1.406471374753
NG2S1 SG2R50  1  0.316269044940  1.255200000000
NG2S1 SG311  1  0.316269044940  1.255200000000
NG2S1 SG301  1  0.314041798144  1.153449199575
NG2S1 SG302  1  0.334087019303  1.282790109098
NG2S1 SG3O1  1  0.325178032121  1.282790109098
NG2S1 SG3O2  1  0.316269044940  1.106982348549
NG2S1 SG3O3  1  0.316269044940  1.106982348549
NG2S1  FGA1  1  0.283305792369  0.687501354180
NG2S1  FGA2  1  0.283305792369  0.606319203061
NG2S1  FGA3  1  0.280633096214  0.582763765517
NG2S1  FGP1  1  0.280633096214  0.582763765517
NG2S1  FGR1  1  0.289542083396  0.648182492821
NG2S1 CLGA1  1  0.308250956477  1.095856615438
NG2S1 CLGA3  1  0.308250956477  1.041807598360
NG2S1 BRGA1  1  0.313596348785  1.296364985643
NG2S1 BRGA2  1  0.320723538531  1.362211707482
NG2S1 BRGA3  1  0.316269044940  1.375002708361
NG2S1   SOD  1  0.263772837973  0.405222074029
NG2S1   CLA  1  0.340323310330  0.724690057887
NG2S1   PG0  1  0.329632525712  1.431148193584
NG2S1   PG1  1  0.329632525712  1.431148193584
NG2S1   PG2  1  0.329632525712  1.431148193584
NG2S1  ALG1  1  0.316269044940  1.508562653654
NG2S1   LPH  1  0.138089301312  0.000000000000
NG2S1 CLGR1  1  0.303796462886  0.897368027066
NG2S1 BRGR1  1  0.314487247504  1.058477578412
NG2S1  IGR1  1  0.337650614175  1.349299456755
NG2S1 SG2P1  1  0.324616765929  1.486115336359
NG2S1 OG2S1  1  0.287724650011  0.705844644210
NG2S1 SG2P2  1  0.321133351941  1.473219612576
NG2S1 SEGD1  1  0.331859772507  1.476898661926
NG2S1 BG201  1  0.365268474438  0.364752663595
NG2S1 CC301  1  0.307360057758  0.187114168357
NG2S1 CC3062  1  0.307360057758  0.187114168357
NG2S1 CC311  1  0.307360057758  0.187114168357
NG2S1 CC3161  1  0.307360057758  0.187114168357
NG2S1 CC3162  1  0.307360057758  0.187114168357
NG2S1 CC3163  1  0.307360057758  0.187114168357
NG2S1 CC321  1  0.307360057758  0.187114168357
NG2S1 CC3261  1  0.307360057758  0.187114168357
NG2S1 CC3263  1  0.307360057758  0.187114168357
NG2S1 CC331  1  0.307360057758  0.187114168357
NG2S1 CC2O1  1  0.316269044940  0.620587489400
NG2S1 CC2O2  1  0.316269044940  0.495057556250
NG2S1 CC2O3  1  0.316269044940  0.561342505072
NG2S1 CC2O4  1  0.298451070577  0.458334236120
NG2S1 CC2O5  1  0.289542083396  0.585760000000
NG2S1 OC2D1  1  0.262815121851  0.648182492821
NG2S1 OC2D2  1  0.289542083396  0.648182492821
NG2S1 OC2D3  1  0.262815121851  0.648182492821
NG2S1 OC2D4  1  0.262815121851  0.648182492821
NG2S1 OC3C61  1  0.285087589805  0.591706954497
NG2S1 OC311  1  0.295332925064  0.820106692766
NG2S1 NC2D1  1  0.276178602624  0.836800000000
NG2S1  HCP1  1  0.158089977534  0.401315181871
NG2S1  HCA1  1  0.257469729543  0.396929091904
NG2S1  HCA2  1  0.257469729543  0.350058555102
NG2S1  HCA3  1  0.257469729543  0.289876023155
NG2S1 CC312  1  0.307360057758  0.187114168357
NG2S1 CC322  1  0.307360057758  0.187114168357
NG2S1  HCR1  1  0.209361198763  0.401315181871
NG2S1 HCA3M  1  0.257469729543  0.289876023155
NG2S1 CC321C  1  0.307360057758  0.187114168357
NG2S1 CC321D  1  0.307360057758  0.187114168357
NG2S1 CC311C  1  0.307360057758  0.187114168357
NG2S1 CC311D  1  0.307360057758  0.187114168357
NG2S1 OC301  1  0.285087589805  0.591706954497
NG2S1 OC302  1  0.285087589805  0.591706954497
NG2S1 HCP1M  1  0.158089977534  0.401315181871
NG2S1 OC311M  1  0.295332925064  0.820106692766
NG2S1 OC3C5M  1  0.285087589805  0.591706954497
NG2S1 CC322C  1  0.307360057758  0.187114168357
NG2S1 HCA2C2  1  0.253906134670  0.350058555102
NG2S1 CC312C  1  0.307360057758  0.187114168357
NG2S1 HCA1C2  1  0.257469729543  0.396929091904
NG2S1 OC3C51  1  0.285087589805  0.591706954497
NG2S1 CC3152  1  0.307360057758  0.187114168357
NG2S1 CC3051  1  0.307360057758  0.187114168357
NG2S1 CC3251  1  0.307360057758  0.187114168357
NG2S1 CC3151  1  0.307360057758  0.187114168357
NG2S1 CC3153  1  0.307360057758  0.187114168357
NG2S1 OC2DP  1  0.289542083396  0.648182492821
NG2S1 OC312  1  0.295778374423  0.729745256593
NG2S1 OC30P  1  0.295778374423  0.729745256593
NG2S1    PC  1  0.329632525712  1.431148193584
NG2S1    SC  1  0.325178032121  1.282790109098
NG2S1 CC312D  1  0.307360057758  0.187114168357
NG2S1 OC303  1  0.285087589805  0.591706954497
NG2S1 NC311  1  0.316269044940  0.396929091904
NG2S1   HN1  1  0.158089977534  0.401315181871
NG2S1   HN2  1  0.158089977534  0.401315181871
NG2S1   HN3  1  0.236088160307  0.401315181871
NG2S1   HN4  1  0.158089977534  0.401315181871
NG2S1   HN5  1  0.158089977534  0.401315181871
NG2S1   HN6  1  0.255687932106  0.277535162457
NG2S1   HN7  1  0.255687932106  0.277535162457
NG2S1   HN8  1  0.257469729543  0.313101890125
NG2S1   HN9  1  0.257469729543  0.289876023155
NG2S1   NN1  1  0.302905564168  0.836800000000
NG2S1   NN2  1  0.302905564168  0.836800000000
NG2S1  NN2B  1  0.302905564168  0.836800000000
NG2S1  NN2G  1  0.302905564168  0.836800000000
NG2S1  NN2U  1  0.302905564168  0.836800000000
NG2S1   NN3  1  0.302905564168  0.836800000000
NG2S1  NN3A  1  0.302905564168  0.836800000000
NG2S1  NN3G  1  0.302905564168  0.836800000000
NG2S1   NN4  1  0.302905564168  0.836800000000
NG2S1   NN6  1  0.302905564168  0.836800000000
NG2S1   ON1  1  0.289542083396  0.648182492821
NG2S1  ON1C  1  0.289542083396  0.648182492821
NG2S1   ON2  1  0.295778374423  0.729745256593
NG2S1   ON3  1  0.289542083396  0.648182492821
NG2S1   ON4  1  0.295778374423  0.729745256593
NG2S1   ON5  1  0.295778374423  0.729745256593
NG2S1   ON6  1  0.295778374423  0.729745256593
NG2S1  ON6B  1  0.295778374423  0.729745256593
NG2S1   CN1  1  0.307360057758  0.591706954497
NG2S1  CN1T  1  0.307360057758  0.591706954497
NG2S1   CN2  1  0.307360057758  0.591706954497
NG2S1   CN3  1  0.307360057758  0.561342505072
NG2S1  CN3T  1  0.307360057758  0.561342505072
NG2S1   CN4  1  0.307360057758  0.512433254190
NG2S1   CN5  1  0.307360057758  0.512433254190
NG2S1  CN5G  1  0.307360057758  0.512433254190
NG2S1   CN7  1  0.307360057758  0.187114168357
NG2S1  CN7B  1  0.307360057758  0.187114168357
NG2S1   CN8  1  0.307360057758  0.187114168357
NG2S1  CN8B  1  0.307360057758  0.187114168357
NG2S1   CN9  1  0.307360057758  0.187114168357
NG2S1     P  1  0.329632525712  1.431148193584
NG2S1    P2  1  0.329632525712  1.431148193584
NG2S1    P3  1  0.329632525712  1.431148193584
NG2S1    P4  1  0.329632525712  1.431148193584
NG2S1   HOL  1  0.158089977534  0.401315181871
NG2S1  HAL1  1  0.255687932106  0.277535162457
NG2S1  HAL2  1  0.257469729543  0.313101890125
NG2S1  HAL3  1  0.257469729543  0.289876023155
NG2S1   HBL  1  0.255687932106  0.277535162457
NG2S1   HCL  1  0.158089977534  0.401315181871
NG2S1    HL  1  0.200452211582  0.401315181871
NG2S1  HEL1  1  0.249451641079  0.329448489449
NG2S1  HEL2  1  0.250342539797  0.301712530731
NG2S1    CL  1  0.316269044940  0.495057556250
NG2S1   CCL  1  0.316269044940  0.495057556250
NG2S1  CTL1  1  0.307360057758  0.187114168357
NG2S1  CTL2  1  0.307360057758  0.187114168357
NG2S1  CTL3  1  0.307360057758  0.187114168357
NG2S1  CTL5  1  0.307360057758  0.187114168357
NG2S1  CEL1  1  0.324287133403  0.487934054561
NG2S1  CEL2  1  0.323396234685  0.473365563598
NG2S1  CRL1  1  0.307360057758  0.187114168357
NG2S1  CRL2  1  0.307360057758  0.187114168357
NG2S1   OBL  1  0.262815121851  0.648182492821
NG2S1   OCL  1  0.289542083396  0.648182492821
NG2S1   O2L  1  0.289542083396  0.648182492821
NG2S1   OHL  1  0.295778374423  0.729745256593
NG2S1   OSL  1  0.285087589805  0.591706954497
NG2S1  OSLP  1  0.285087589805  0.591706954497
NG2S1  NH3L  1  0.302905564168  0.836800000000
NG2S1   NTL  1  0.302905564168  0.836800000000
NG2S1    SL  1  0.325178032121  1.282790109098
NG2S1    PL  1  0.329632525712  1.431148193584
NG2S1 HCA1A  1  0.257469729543  0.396929091904
NG2S1 HCA2A  1  0.257469729543  0.350058555102
NG2S1 HCA3A  1  0.257469729543  0.289876023155
NG2S1 CC30A  1  0.307360057758  0.187114168357
NG2S1 CC31A  1  0.307360057758  0.187114168357
NG2S1 CC32A  1  0.307360057758  0.187114168357
NG2S1 CC33A  1  0.307360057758  0.187114168357
NG2S1 CC326A  1  0.307360057758  0.187114168357
NG2S1 HCA25A  1  0.253906134670  0.350058555102
NG2S1 CC325A  1  0.307360057758  0.187114168357
NG2S1 CC325B  1  0.307360057758  0.187114168357
NG2S1 OC305A  1  0.285087589805  0.591706954497
NG2S1 OC30A  1  0.285087589805  0.591706954497
NG2S1  HSIO  1  0.158089977534  0.401315181871
NG2S1  HSIA  1  0.255687932106  0.277535162457
NG2S1   HAL  1  0.255687932106  0.277535162457
NG2S1    AL  1  0.334087019303  1.508562653654
NG2S1    SI  1  0.334087019303  1.449380115774
NG2S1  SIH3  1  0.334087019303  1.449380115774
NG2S1  OSIH  1  0.295778374423  0.729745256593
NG2S1  OSIE  1  0.295778374423  0.729745256593
NG2S1  OSIA  1  0.295778374423  0.729745256593
NG2S1   OAL  1  0.295778374423  0.729745256593
NG2S1    HT  1  0.158089977534  0.401315181871
NG2S1    OT  1  0.295618012653  0.729745256593
NG2S1   DUM  1  0.138089301312  0.000000000000
NG2S1    CM  1  0.325178032121  0.620587489400
NG2S1   CPA  1  0.298451070577  0.561342505072
NG2S1   CPB  1  0.298451070577  0.561342505072
NG2S1   CPM  1  0.298451070577  0.561342505072
NG2S1   CST  1  0.277336770957  0.450630591061
NG2S1  CT1X  1  0.307360057758  0.187114168357
NG2S1  CT2X  1  0.307360057758  0.187114168357
NG2S1  CT3X  1  0.307360057758  0.187114168357
NG2S1    HB  1  0.255687932106  0.277535162457
NG2S1   NPH  1  0.302905564168  0.836800000000
NG2S1    OM  1  0.289542083396  0.648182492821
NG2S1   OST  1  0.288829364421  0.760061344893
NG2S1   POT  1  0.295221562724  0.551907505294
NG2S1   CAL  1  0.259875156082  0.648182492821
NG2S1    MG  1  0.243660799411  0.229167118060
NG2S1   CES  1  0.325178032121  0.815611750774
NG2S1    ZN  1  0.235197261589  0.935570841786
NG2S1    FE  1  0.195997717991  0.000000000000
NG2S1    HE  1  0.269942311597  0.272891757706
NG2S1    NE  1  0.274396805187  0.548726455714
NG2S1  CLAL  1  0.308090594707  0.324091246411
NG2S1    AG  1  0.269719586917  3.995665235227
NG2S1    AU  1  0.269541407173  4.303625872215
NG2S1    CU  1  0.254618853645  4.065160275315
NG2S1    NI  1  0.251767977746  4.447653008048
NG2S1    PB  1  0.296891997820  3.202878645219
NG2S1    PD  1  0.263661475634  4.640280474282
NG2S1    PT  1  0.264819643967  5.225814325060
NG2S1   CAP  1  0.315591961914  0.495057556250
NG2S1    FA  1  0.289542083396  0.648182492821
NG2S1    CN  1  0.293996576986  0.836800000000
NG2S1    NC  1  0.302905564168  1.449380115774
NG2S1   OCA  1  0.262815121851  0.648182492821
NG2S1   COA  1  0.316269044940  0.620587489400
NG2S1   CF1  1  0.307360057758  0.458334236120
NG2S1   CF2  1  0.320723538531  0.383469934154
NG2S1   CF3  1  0.342996006484  0.264619394603
NG2S1   HF1  1  0.255687932106  0.313101890125
NG2S1   HF2  1  0.253906134670  0.324091246411
NG2S1    F1  1  0.283305792369  0.687501354180
NG2S1    F2  1  0.283305792369  0.606319203061
NG2S1    F3  1  0.280633096214  0.582763765517
NG2S1    OX  1  0.289542083396  0.648182492821
NG2S1    HX  1  0.158089977534  0.401315181871
NG2S1  HPER  1  0.158089977534  0.401315181871
NG2S1  OPER  1  0.287246237399  0.844795086046
NG2S1   LIT  1  0.253683409990  0.090320146678
NG2S1   RUB  1  0.307360057758  0.724690057887
NG2S1   BAR  1  0.306469159040  0.724690057887
NG2S1   CAD  1  0.258984257363  0.648182492821
NG2S1  ON2B  1  0.295778374423  0.729745256593
NG2S1    SP  1  0.334087019303  1.255200000000
NG2S1   HNP  1  0.259091165210  0.324091246411
NG2S1  HNE1  1  0.249451641079  0.329448489449
NG2S1  HNE2  1  0.250342539797  0.301712530731
NG2S1  CN3D  1  0.307360057758  0.561342505072
NG2S1  CNE1  1  0.324287133403  0.487934054561
NG2S1  CNE2  1  0.323396234685  0.473365563598
NG2S1   CNA  1  0.315591961914  0.495057556250
NG2S1  CNA2  1  0.307360057758  0.495057556250
NG2S1   CNG  1  0.316269044940  0.620587489400
NG2S1  NN1C  1  0.302905564168  0.836800000000
NG2S1  NN2C  1  0.302905564168  0.836800000000
NG2S1  NN3I  1  0.302905564168  0.836800000000
NG2S1   NNG  1  0.302905564168  0.836800000000
NG2S1   FNA  1  0.289542083396  0.648182492821
NG2S1  ON2M  1  0.285087589805  0.591706954497
NG2S1   CN6  1  0.307360057758  0.187114168357
NG2S1  CN7E  1  0.307360057758  0.187114168357
NG2S1  CT2P  1  0.307360057758  0.187114168357
NG2S1  CTD1  1  0.307360057758  0.187114168357
NG2S1  CPD1  1  0.307360057758  0.187114168357
NG2S1  CC1A  1  0.324287133403  0.487934054561
NG2S1  CC1B  1  0.324287133403  0.487934054561
NG2S1   CC2  1  0.323396234685  0.473365563598
NG2S1   NS1  1  0.302905564168  0.836800000000
NG2S1   NS2  1  0.302905564168  0.836800000000
NG2S1   NHL  1  0.276178602624  0.836800000000
NG2S1  CTO1  1  0.307360057758  0.187114168357
NG2S1  CEL3  1  0.324287133403  0.487934054561
NG2S1  CTO2  1  0.307360057758  0.187114168357
NG2S1  HN3B  1  0.218270185944  0.401315181871
NG2S1  CN1A  1  0.316269044940  0.495057556250
NG2S1  CN3A  1  0.298451070577  0.793858183809
NG2S1  CN3B  1  0.298451070577  0.793858183809
NG2S1  CN3C  1  0.298451070577  0.793858183809
OG2D1     C  1  0.302905564168  0.480705002262
OG2D1    CA  1  0.302228481142  0.383469934154
OG2D1    CC  1  0.302905564168  0.383469934154
OG2D1    CD  1  0.302905564168  0.383469934154
OG2D1   CE1  1  0.310923652631  0.377952093472
OG2D1   CE2  1  0.310032753913  0.366667388896
OG2D1   CP1  1  0.293996576986  0.144938011577
OG2D1   CP2  1  0.293996576986  0.144938011577
OG2D1   CP3  1  0.293996576986  0.144938011577
OG2D1  CPH1  1  0.285087589805  0.324091246411
OG2D1  CPH2  1  0.285087589805  0.324091246411
OG2D1    CS  1  0.320723538531  0.480705002262
OG2D1   CPT  1  0.290432982114  0.456036806936
OG2D1    CY  1  0.302014665450  0.391600943002
OG2D1   CAI  1  0.302014665450  0.391600943002
OG2D1    CT  1  0.293996576986  0.144938011577
OG2D1   CT1  1  0.293996576986  0.144938011577
OG2D1   CT2  1  0.293996576986  0.144938011577
OG2D1  CT2A  1  0.293996576986  0.144938011577
OG2D1   CT3  1  0.293996576986  0.144938011577
OG2D1    C3  1  0.327405278917  0.204973301676
OG2D1     H  1  0.144726496762  0.310857403193
OG2D1    HA  1  0.242324451334  0.214977812437
OG2D1   HB1  1  0.242324451334  0.214977812437
OG2D1   HB2  1  0.244106248770  0.242527681224
OG2D1   HE1  1  0.236088160307  0.255189702614
OG2D1   HE2  1  0.236979059025  0.233705521373
OG2D1    HC  1  0.144726496762  0.310857403193
OG2D1    HP  1  0.245727684437  0.251040000000
OG2D1   HR1  1  0.204906705172  0.310857403193
OG2D1   HR2  1  0.187088730809  0.310857403193
OG2D1   HR3  1  0.255509752363  0.128005785869
OG2D1    HS  1  0.164816262856  0.458334236120
OG2D1   HA1  1  0.244106248770  0.307459952514
OG2D1   HA2  1  0.244106248770  0.267252488258
OG2D1   HA3  1  0.244106248770  0.224537002029
OG2D1     N  1  0.289542083396  0.014493801158
OG2D1   NC2  1  0.289542083396  0.648182492821
OG2D1   NH1  1  0.262815121851  0.648182492821
OG2D1   NH2  1  0.289542083396  0.648182492821
OG2D1   NH3  1  0.289542083396  0.648182492821
OG2D1    NP  1  0.289542083396  0.648182492821
OG2D1   NR1  1  0.289542083396  0.648182492821
OG2D1   NR2  1  0.289542083396  0.648182492821
OG2D1   NR3  1  0.289542083396  0.648182492821
OG2D1    NY  1  0.289542083396  0.648182492821
OG2D1     O  1  0.249451641079  0.502080000000
OG2D1    OB  1  0.249451641079  0.502080000000
OG2D1    OC  1  0.276178602624  0.502080000000
OG2D1   OH1  1  0.282414893650  0.565258245152
OG2D1    OS  1  0.282414893650  0.565258245152
OG2D1     S  1  0.302905564168  0.972273739232
OG2D1    SM  1  0.300678317372  0.893457908130
OG2D1    SS  1  0.320723538531  0.993644945843
OG2D1  HGA1  1  0.244106248770  0.307459952514
OG2D1  HGA2  1  0.244106248770  0.271154190821
OG2D1  HGA3  1  0.244106248770  0.224537002029
OG2D1  HGA4  1  0.236088160307  0.255189702614
OG2D1  HGA5  1  0.236979059025  0.233705521373
OG2D1  HGA6  1  0.242324451334  0.242527681224
OG2D1  HGA7  1  0.240542653898  0.251040000000
OG2D1 HGAAM0  1  0.238760856462  0.242527681224
OG2D1 HGAAM1  1  0.238760856462  0.242527681224
OG2D1 HGAAM2  1  0.236979059025  0.289876023155
OG2D1  HGP1  1  0.144726496762  0.310857403193
OG2D1  HGP2  1  0.144726496762  0.310857403193
OG2D1  HGP3  1  0.164816262856  0.458334236120
OG2D1  HGP4  1  0.144726496762  0.310857403193
OG2D1  HGP5  1  0.187088730809  0.310857403193
OG2D1 HGPAM1  1  0.202679458377  0.137500270836
OG2D1 HGPAM2  1  0.202679458377  0.144938011577
OG2D1 HGPAM3  1  0.202234009018  0.158771636762
OG2D1 HGR51  1  0.245727684437  0.251040000000
OG2D1 HGR52  1  0.204906705172  0.310857403193
OG2D1 HGR53  1  0.187088730809  0.310857403193
OG2D1 HGR61  1  0.245727684437  0.251040000000
OG2D1 HGR62  1  0.222724679535  0.310857403193
OG2D1 HGR63  1  0.204906705172  0.310857403193
OG2D1 HGR71  1  0.245727684437  0.251040000000
OG2D1 HGTIP3  1  0.144726496762  0.310857403193
OG2D1 CG1T1  1  0.288651184677  0.592298365893
OG2D1 CG1T2  1  0.302237390129  0.465609837422
OG2D1 CG1N1  1  0.291323880832  0.614919905028
OG2D1 CG2D1  1  0.310923652631  0.377952093472
OG2D1 CG2D2  1  0.310032753913  0.366667388896
OG2D1 CG2D1O  1  0.310923652631  0.377952093472
OG2D1 CG2D2O  1  0.310923652631  0.377952093472
OG2D1 CG2DC1  1  0.310923652631  0.377952093472
OG2D1 CG2DC2  1  0.310923652631  0.377952093472
OG2D1 CG2DC3  1  0.310032753913  0.366667388896
OG2D1 CG2N1  1  0.302905564168  0.480705002262
OG2D1 CG2N2  1  0.302905564168  0.480705002262
OG2D1 CG2O1  1  0.302905564168  0.480705002262
OG2D1 CG2O2  1  0.276178602624  0.453727744975
OG2D1 CG2O3  1  0.302905564168  0.383469934154
OG2D1 CG2O4  1  0.285087589805  0.355024172698
OG2D1 CG2O5  1  0.302905564168  0.434814034732
OG2D1 CG2O6  1  0.302905564168  0.383469934154
OG2D1 CG2O7  1  0.263973290185  0.349056954894
OG2D1 CG2R51  1  0.311814551349  0.324091246411
OG2D1 CG2R52  1  0.320723538531  0.204973301676
OG2D1 CG2R53  1  0.320723538531  0.204973301676
OG2D1 CG2R57  1  0.311814551349  0.324091246411
OG2D1 CG25C1  1  0.310923652631  0.377952093472
OG2D1 CG25C2  1  0.310923652631  0.377952093472
OG2D1 CG251O  1  0.310923652631  0.377952093472
OG2D1 CG252O  1  0.310923652631  0.377952093472
OG2D1 CG2R61  1  0.302228481142  0.383469934154
OG2D1 CG2R62  1  0.293996576986  0.434814034732
OG2D1 CG2R63  1  0.293996576986  0.458334236120
OG2D1 CG2R64  1  0.311814551349  0.289876023155
OG2D1 CG2R66  1  0.293996576986  0.383469934154
OG2D1 CG2R67  1  0.302228481142  0.383469934154
OG2D1 CG2RC0  1  0.290432982114  0.456036806936
OG2D1 CG2R71  1  0.302442296834  0.375162741007
OG2D1 CG2RC7  1  0.290432982114  0.456036806936
OG2D1 CG301  1  0.293996576986  0.144938011577
OG2D1 CG302  1  0.329632525712  0.204973301676
OG2D1 CG311  1  0.293996576986  0.144938011577
OG2D1 CG312  1  0.307360057758  0.297034533750
OG2D1 CG314  1  0.293996576986  0.144938011577
OG2D1 CG321  1  0.293996576986  0.144938011577
OG2D1 CG322  1  0.293996576986  0.355024172698
OG2D1 CG323  1  0.320723538531  0.480705002262
OG2D1 CG324  1  0.293996576986  0.144938011577
OG2D1 CG331  1  0.293996576986  0.144938011577
OG2D1 CG334  1  0.293996576986  0.144938011577
OG2D1 CG3C50  1  0.293996576986  0.144938011577
OG2D1 CG3C51  1  0.293996576986  0.144938011577
OG2D1 CG3C52  1  0.293996576986  0.144938011577
OG2D1 CG3C53  1  0.293996576986  0.144938011577
OG2D1 CG3C54  1  0.293996576986  0.144938011577
OG2D1 CG3C31  1  0.293996576986  0.144938011577
OG2D1 CG3C41  1  0.293996576986  0.144938011577
OG2D1 CG3RC1  1  0.293996576986  0.144938011577
OG2D1 CG3AM0  1  0.300232868013  0.383469934154
OG2D1 CG3AM1  1  0.301123766731  0.404789837027
OG2D1 CG3AM2  1  0.302014665450  0.409946603352
OG2D1 NG1T1  1  0.284196691087  0.614919905028
OG2D1 NG2D1  1  0.289542083396  0.648182492821
OG2D1 NG2S0  1  0.289542083396  0.014493801158
OG2D1 NG2S1  1  0.262815121851  0.648182492821
OG2D1 NG2S2  1  0.289542083396  0.648182492821
OG2D1 NG2S3  1  0.289542083396  0.648182492821
OG2D1 NG2O1  1  0.289542083396  0.648182492821
OG2D1 NG2P1  1  0.289542083396  0.648182492821
OG2D1 NG2R43  1  0.289542083396  0.648182492821
OG2D1 NG2R50  1  0.289542083396  0.648182492821
OG2D1 NG2R51  1  0.289542083396  0.648182492821
OG2D1 NG2R52  1  0.289542083396  0.648182492821
OG2D1 NG2R53  1  0.289542083396  0.648182492821
OG2D1 NG2R57  1  0.289542083396  0.648182492821
OG2D1 NG2R60  1  0.293105678268  0.355024172698
OG2D1 NG2R61  1  0.289542083396  0.648182492821
OG2D1 NG2R62  1  0.308250956477  0.324091246411
OG2D1 NG2R67  1  0.289542083396  0.648182492821
OG2D1 NG2RC0  1  0.289542083396  0.648182492821
OG2D1 NG301  1  0.302905564168  0.271154190821
OG2D1 NG311  1  0.302905564168  0.307459952514
OG2D1 NG321  1  0.302014665450  0.355024172698
OG2D1 NG331  1  0.301123766731  0.383469934154
OG2D1 NG3C51  1  0.289542083396  0.648182492821
OG2D1 NG3N1  1  0.307360057758  0.355024172698
OG2D1 NG3P0  1  0.289542083396  0.648182492821
OG2D1 NG3P1  1  0.289542083396  0.648182492821
OG2D1 NG3P2  1  0.289542083396  0.648182492821
OG2D1 NG3P3  1  0.289542083396  0.648182492821
OG2D1 OG2D1  1  0.249451641079  0.502080000000
OG2D1 OG2D2  1  0.276178602624  0.502080000000
OG2D1 OG2D3  1  0.249451641079  0.502080000000
OG2D1 OG2D4  1  0.276178602624  0.502080000000
OG2D1 OG2D5  1  0.275465883649  0.588740986173
OG2D1 OG2N1  1  0.276178602624  0.502080000000
OG2D1 OG2P1  1  0.276178602624  0.502080000000
OG2D1 OG2R50  1  0.276178602624  0.502080000000
OG2D1 OG3R60  1  0.271724109033  0.458334236120
OG2D1 OG301  1  0.271724109033  0.458334236120
OG2D1 OG302  1  0.271724109033  0.458334236120
OG2D1 OG303  1  0.271724109033  0.458334236120
OG2D1 OG304  1  0.271724109033  0.458334236120
OG2D1 OG311  1  0.281969444291  0.635251912639
OG2D1 OG312  1  0.280633096214  0.502080000000
OG2D1 OG3C31  1  0.271724109033  0.458334236120
OG2D1 OG3C51  1  0.271724109033  0.458334236120
OG2D1 OG3C61  1  0.271724109033  0.458334236120
OG2D1 OGTIP3  1  0.282254531881  0.565258245152
OG2D1 SG2D1  1  0.307360057758  1.089448042267
OG2D1 SG2R50  1  0.302905564168  0.972273739232
OG2D1 SG311  1  0.302905564168  0.972273739232
OG2D1 SG301  1  0.300678317372  0.893457908130
OG2D1 SG302  1  0.320723538531  0.993644945843
OG2D1 SG3O1  1  0.311814551349  0.993644945843
OG2D1 SG3O2  1  0.302905564168  0.857464840095
OG2D1 SG3O3  1  0.302905564168  0.857464840095
OG2D1  FGA1  1  0.269942311597  0.532536259047
OG2D1  FGA2  1  0.269942311597  0.469652835188
OG2D1  FGA3  1  0.267269615442  0.451406871724
OG2D1  FGP1  1  0.267269615442  0.451406871724
OG2D1  FGR1  1  0.276178602624  0.502080000000
OG2D1 CLGA1  1  0.294887475704  0.848846884285
OG2D1 CLGA3  1  0.294887475704  0.806980695680
OG2D1 BRGA1  1  0.300232868013  1.004160000000
OG2D1 BRGA2  1  0.307360057758  1.055164651417
OG2D1 BRGA3  1  0.302905564168  1.065072518094
OG2D1   SOD  1  0.250409357201  0.313883668846
OG2D1   CLA  1  0.326959829558  0.561342505072
OG2D1   PG0  1  0.316269044940  1.108562623941
OG2D1   PG1  1  0.316269044940  1.108562623941
OG2D1   PG2  1  0.316269044940  1.108562623941
OG2D1  ALG1  1  0.302905564168  1.168527606863
OG2D1   LPH  1  0.124725820540  0.000000000000
OG2D1 CLGR1  1  0.290432982114  0.695098284849
OG2D1 BRGR1  1  0.301123766731  0.819893206704
OG2D1  IGR1  1  0.324287133403  1.045162865012
OG2D1 SG2P1  1  0.311253285157  1.151139989652
OG2D1 OG2S1  1  0.274361169238  0.546744910407
OG2D1 SG2P2  1  0.307769871169  1.141151004963
OG2D1 SEGD1  1  0.318496291735  1.144000784335
OG2D1 BG201  1  0.351904993665  0.282536198318
OG2D1 CC301  1  0.293996576986  0.144938011577
OG2D1 CC3062  1  0.293996576986  0.144938011577
OG2D1 CC311  1  0.293996576986  0.144938011577
OG2D1 CC3161  1  0.293996576986  0.144938011577
OG2D1 CC3162  1  0.293996576986  0.144938011577
OG2D1 CC3163  1  0.293996576986  0.144938011577
OG2D1 CC321  1  0.293996576986  0.144938011577
OG2D1 CC3261  1  0.293996576986  0.144938011577
OG2D1 CC3263  1  0.293996576986  0.144938011577
OG2D1 CC331  1  0.293996576986  0.144938011577
OG2D1 CC2O1  1  0.302905564168  0.480705002262
OG2D1 CC2O2  1  0.302905564168  0.383469934154
OG2D1 CC2O3  1  0.302905564168  0.434814034732
OG2D1 CC2O4  1  0.285087589805  0.355024172698
OG2D1 CC2O5  1  0.276178602624  0.453727744975
OG2D1 OC2D1  1  0.249451641079  0.502080000000
OG2D1 OC2D2  1  0.276178602624  0.502080000000
OG2D1 OC2D3  1  0.249451641079  0.502080000000
OG2D1 OC2D4  1  0.249451641079  0.502080000000
OG2D1 OC3C61  1  0.271724109033  0.458334236120
OG2D1 OC311  1  0.281969444291  0.635251912639
OG2D1 NC2D1  1  0.262815121851  0.648182492821
OG2D1  HCP1  1  0.144726496762  0.310857403193
OG2D1  HCA1  1  0.244106248770  0.307459952514
OG2D1  HCA2  1  0.244106248770  0.271154190821
OG2D1  HCA3  1  0.244106248770  0.224537002029
OG2D1 CC312  1  0.293996576986  0.144938011577
OG2D1 CC322  1  0.293996576986  0.144938011577
OG2D1  HCR1  1  0.195997717991  0.310857403193
OG2D1 HCA3M  1  0.244106248770  0.224537002029
OG2D1 CC321C  1  0.293996576986  0.144938011577
OG2D1 CC321D  1  0.293996576986  0.144938011577
OG2D1 CC311C  1  0.293996576986  0.144938011577
OG2D1 CC311D  1  0.293996576986  0.144938011577
OG2D1 OC301  1  0.271724109033  0.458334236120
OG2D1 OC302  1  0.271724109033  0.458334236120
OG2D1 HCP1M  1  0.144726496762  0.310857403193
OG2D1 OC311M  1  0.281969444291  0.635251912639
OG2D1 OC3C5M  1  0.271724109033  0.458334236120
OG2D1 CC322C  1  0.293996576986  0.144938011577
OG2D1 HCA2C2  1  0.240542653898  0.271154190821
OG2D1 CC312C  1  0.293996576986  0.144938011577
OG2D1 HCA1C2  1  0.244106248770  0.307459952514
OG2D1 OC3C51  1  0.271724109033  0.458334236120
OG2D1 CC3152  1  0.293996576986  0.144938011577
OG2D1 CC3051  1  0.293996576986  0.144938011577
OG2D1 CC3251  1  0.293996576986  0.144938011577
OG2D1 CC3151  1  0.293996576986  0.144938011577
OG2D1 CC3153  1  0.293996576986  0.144938011577
OG2D1 OC2DP  1  0.276178602624  0.502080000000
OG2D1 OC312  1  0.282414893650  0.565258245152
OG2D1 OC30P  1  0.282414893650  0.565258245152
OG2D1    PC  1  0.316269044940  1.108562623941
OG2D1    SC  1  0.311814551349  0.993644945843
OG2D1 CC312D  1  0.293996576986  0.144938011577
OG2D1 OC303  1  0.271724109033  0.458334236120
OG2D1 NC311  1  0.302905564168  0.307459952514
OG2D1   HN1  1  0.144726496762  0.310857403193
OG2D1   HN2  1  0.144726496762  0.310857403193
OG2D1   HN3  1  0.222724679535  0.310857403193
OG2D1   HN4  1  0.144726496762  0.310857403193
OG2D1   HN5  1  0.144726496762  0.310857403193
OG2D1   HN6  1  0.242324451334  0.214977812437
OG2D1   HN7  1  0.242324451334  0.214977812437
OG2D1   HN8  1  0.244106248770  0.242527681224
OG2D1   HN9  1  0.244106248770  0.224537002029
OG2D1   NN1  1  0.289542083396  0.648182492821
OG2D1   NN2  1  0.289542083396  0.648182492821
OG2D1  NN2B  1  0.289542083396  0.648182492821
OG2D1  NN2G  1  0.289542083396  0.648182492821
OG2D1  NN2U  1  0.289542083396  0.648182492821
OG2D1   NN3  1  0.289542083396  0.648182492821
OG2D1  NN3A  1  0.289542083396  0.648182492821
OG2D1  NN3G  1  0.289542083396  0.648182492821
OG2D1   NN4  1  0.289542083396  0.648182492821
OG2D1   NN6  1  0.289542083396  0.648182492821
OG2D1   ON1  1  0.276178602624  0.502080000000
OG2D1  ON1C  1  0.276178602624  0.502080000000
OG2D1   ON2  1  0.282414893650  0.565258245152
OG2D1   ON3  1  0.276178602624  0.502080000000
OG2D1   ON4  1  0.282414893650  0.565258245152
OG2D1   ON5  1  0.282414893650  0.565258245152
OG2D1   ON6  1  0.282414893650  0.565258245152
OG2D1  ON6B  1  0.282414893650  0.565258245152
OG2D1   CN1  1  0.293996576986  0.458334236120
OG2D1  CN1T  1  0.293996576986  0.458334236120
OG2D1   CN2  1  0.293996576986  0.458334236120
OG2D1   CN3  1  0.293996576986  0.434814034732
OG2D1  CN3T  1  0.293996576986  0.434814034732
OG2D1   CN4  1  0.293996576986  0.396929091904
OG2D1   CN5  1  0.293996576986  0.396929091904
OG2D1  CN5G  1  0.293996576986  0.396929091904
OG2D1   CN7  1  0.293996576986  0.144938011577
OG2D1  CN7B  1  0.293996576986  0.144938011577
OG2D1   CN8  1  0.293996576986  0.144938011577
OG2D1  CN8B  1  0.293996576986  0.144938011577
OG2D1   CN9  1  0.293996576986  0.144938011577
OG2D1     P  1  0.316269044940  1.108562623941
OG2D1    P2  1  0.316269044940  1.108562623941
OG2D1    P3  1  0.316269044940  1.108562623941
OG2D1    P4  1  0.316269044940  1.108562623941
OG2D1   HOL  1  0.144726496762  0.310857403193
OG2D1  HAL1  1  0.242324451334  0.214977812437
OG2D1  HAL2  1  0.244106248770  0.242527681224
OG2D1  HAL3  1  0.244106248770  0.224537002029
OG2D1   HBL  1  0.242324451334  0.214977812437
OG2D1   HCL  1  0.144726496762  0.310857403193
OG2D1    HL  1  0.187088730809  0.310857403193
OG2D1  HEL1  1  0.236088160307  0.255189702614
OG2D1  HEL2  1  0.236979059025  0.233705521373
OG2D1    CL  1  0.302905564168  0.383469934154
OG2D1   CCL  1  0.302905564168  0.383469934154
OG2D1  CTL1  1  0.293996576986  0.144938011577
OG2D1  CTL2  1  0.293996576986  0.144938011577
OG2D1  CTL3  1  0.293996576986  0.144938011577
OG2D1  CTL5  1  0.293996576986  0.144938011577
OG2D1  CEL1  1  0.310923652631  0.377952093472
OG2D1  CEL2  1  0.310032753913  0.366667388896
OG2D1  CRL1  1  0.293996576986  0.144938011577
OG2D1  CRL2  1  0.293996576986  0.144938011577
OG2D1   OBL  1  0.249451641079  0.502080000000
OG2D1   OCL  1  0.276178602624  0.502080000000
OG2D1   O2L  1  0.276178602624  0.502080000000
OG2D1   OHL  1  0.282414893650  0.565258245152
OG2D1   OSL  1  0.271724109033  0.458334236120
OG2D1  OSLP  1  0.271724109033  0.458334236120
OG2D1  NH3L  1  0.289542083396  0.648182492821
OG2D1   NTL  1  0.289542083396  0.648182492821
OG2D1    SL  1  0.311814551349  0.993644945843
OG2D1    PL  1  0.316269044940  1.108562623941
OG2D1 HCA1A  1  0.244106248770  0.307459952514
OG2D1 HCA2A  1  0.244106248770  0.271154190821
OG2D1 HCA3A  1  0.244106248770  0.224537002029
OG2D1 CC30A  1  0.293996576986  0.144938011577
OG2D1 CC31A  1  0.293996576986  0.144938011577
OG2D1 CC32A  1  0.293996576986  0.144938011577
OG2D1 CC33A  1  0.293996576986  0.144938011577
OG2D1 CC326A  1  0.293996576986  0.144938011577
OG2D1 HCA25A  1  0.240542653898  0.271154190821
OG2D1 CC325A  1  0.293996576986  0.144938011577
OG2D1 CC325B  1  0.293996576986  0.144938011577
OG2D1 OC305A  1  0.271724109033  0.458334236120
OG2D1 OC30A  1  0.271724109033  0.458334236120
OG2D1  HSIO  1  0.144726496762  0.310857403193
OG2D1  HSIA  1  0.242324451334  0.214977812437
OG2D1   HAL  1  0.242324451334  0.214977812437
OG2D1    AL  1  0.320723538531  1.168527606863
OG2D1    SI  1  0.320723538531  1.122685010143
OG2D1  SIH3  1  0.320723538531  1.122685010143
OG2D1  OSIH  1  0.282414893650  0.565258245152
OG2D1  OSIE  1  0.282414893650  0.565258245152
OG2D1  OSIA  1  0.282414893650  0.565258245152
OG2D1   OAL  1  0.282414893650  0.565258245152
OG2D1    HT  1  0.144726496762  0.310857403193
OG2D1    OT  1  0.282254531881  0.565258245152
OG2D1   DUM  1  0.124725820540  0.000000000000
OG2D1    CM  1  0.311814551349  0.480705002262
OG2D1   CPA  1  0.285087589805  0.434814034732
OG2D1   CPB  1  0.285087589805  0.434814034732
OG2D1   CPM  1  0.285087589805  0.434814034732
OG2D1   CST  1  0.263973290185  0.349056954894
OG2D1  CT1X  1  0.293996576986  0.144938011577
OG2D1  CT2X  1  0.293996576986  0.144938011577
OG2D1  CT3X  1  0.293996576986  0.144938011577
OG2D1    HB  1  0.242324451334  0.214977812437
OG2D1   NPH  1  0.289542083396  0.648182492821
OG2D1    OM  1  0.276178602624  0.502080000000
OG2D1   OST  1  0.275465883649  0.588740986173
OG2D1   POT  1  0.281858081952  0.427505715330
OG2D1   CAL  1  0.246511675309  0.502080000000
OG2D1    MG  1  0.230297318639  0.177512086349
OG2D1   CES  1  0.311814551349  0.631770145543
OG2D1    ZN  1  0.221833780817  0.724690057887
OG2D1    FE  1  0.182634237219  0.000000000000
OG2D1    HE  1  0.256578830824  0.211381046583
OG2D1    NE  1  0.261033324415  0.425041684920
OG2D1  CLAL  1  0.294727113935  0.251040000000
OG2D1    AG  1  0.256356106145  3.095028982611
OG2D1    AU  1  0.256177926401  3.333574266279
OG2D1    CU  1  0.241255372872  3.148859609192
OG2D1    NI  1  0.238404496974  3.445137205976
OG2D1    PB  1  0.283528517048  2.480939130571
OG2D1    PD  1  0.250297994862  3.594345799725
OG2D1    PT  1  0.251456163195  4.047898370266
OG2D1   CAP  1  0.302228481142  0.383469934154
OG2D1    FA  1  0.276178602624  0.502080000000
OG2D1    CN  1  0.280633096214  0.648182492821
OG2D1    NC  1  0.289542083396  1.122685010143
OG2D1   OCA  1  0.249451641079  0.502080000000
OG2D1   COA  1  0.302905564168  0.480705002262
OG2D1   CF1  1  0.293996576986  0.355024172698
OG2D1   CF2  1  0.307360057758  0.297034533750
OG2D1   CF3  1  0.329632525712  0.204973301676
OG2D1   HF1  1  0.242324451334  0.242527681224
OG2D1   HF2  1  0.240542653898  0.251040000000
OG2D1    F1  1  0.269942311597  0.532536259047
OG2D1    F2  1  0.269942311597  0.469652835188
OG2D1    F3  1  0.267269615442  0.451406871724
OG2D1    OX  1  0.276178602624  0.502080000000
OG2D1    HX  1  0.144726496762  0.310857403193
OG2D1  HPER  1  0.144726496762  0.310857403193
OG2D1  OPER  1  0.273882756627  0.654375459843
OG2D1   LIT  1  0.240319929218  0.069961684782
OG2D1   RUB  1  0.293996576986  0.561342505072
OG2D1   BAR  1  0.293105678268  0.561342505072
OG2D1   CAD  1  0.245620776591  0.502080000000
OG2D1  ON2B  1  0.282414893650  0.565258245152
OG2D1    SP  1  0.320723538531  0.972273739232
OG2D1   HNP  1  0.245727684437  0.251040000000
OG2D1  HNE1  1  0.236088160307  0.255189702614
OG2D1  HNE2  1  0.236979059025  0.233705521373
OG2D1  CN3D  1  0.293996576986  0.434814034732
OG2D1  CNE1  1  0.310923652631  0.377952093472
OG2D1  CNE2  1  0.310032753913  0.366667388896
OG2D1   CNA  1  0.302228481142  0.383469934154
OG2D1  CNA2  1  0.293996576986  0.383469934154
OG2D1   CNG  1  0.302905564168  0.480705002262
OG2D1  NN1C  1  0.289542083396  0.648182492821
OG2D1  NN2C  1  0.289542083396  0.648182492821
OG2D1  NN3I  1  0.289542083396  0.648182492821
OG2D1   NNG  1  0.289542083396  0.648182492821
OG2D1   FNA  1  0.276178602624  0.502080000000
OG2D1  ON2M  1  0.271724109033  0.458334236120
OG2D1   CN6  1  0.293996576986  0.144938011577
OG2D1  CN7E  1  0.293996576986  0.144938011577
OG2D1  CT2P  1  0.293996576986  0.144938011577
OG2D1  CTD1  1  0.293996576986  0.144938011577
OG2D1  CPD1  1  0.293996576986  0.144938011577
OG2D1  CC1A  1  0.310923652631  0.377952093472
OG2D1  CC1B  1  0.310923652631  0.377952093472
OG2D1   CC2  1  0.310032753913  0.366667388896
OG2D1   NS1  1  0.289542083396  0.648182492821
OG2D1   NS2  1  0.289542083396  0.648182492821
OG2D1   NHL  1  0.262815121851  0.648182492821
OG2D1  CTO1  1  0.293996576986  0.144938011577
OG2D1  CEL3  1  0.310923652631  0.377952093472
OG2D1  CTO2  1  0.293996576986  0.144938011577
OG2D1  HN3B  1  0.204906705172  0.310857403193
OG2D1  CN1A  1  0.302905564168  0.383469934154
OG2D1  CN3A  1  0.285087589805  0.614919905028
OG2D1  CN3B  1  0.285087589805  0.614919905028
OG2D1  CN3C  1  0.285087589805  0.614919905028
OG2D3     C  1  0.302905564168  0.480705002262
OG2D3    CA  1  0.302228481142  0.383469934154
OG2D3    CC  1  0.302905564168  0.383469934154
OG2D3    CD  1  0.302905564168  0.383469934154
OG2D3   CE1  1  0.310923652631  0.377952093472
OG2D3   CE2  1  0.310032753913  0.366667388896
OG2D3   CP1  1  0.293996576986  0.144938011577
OG2D3   CP2  1  0.293996576986  0.144938011577
OG2D3   CP3  1  0.293996576986  0.144938011577
OG2D3  CPH1  1  0.285087589805  0.324091246411
OG2D3  CPH2  1  0.285087589805  0.324091246411
OG2D3    CS  1  0.320723538531  0.480705002262
OG2D3   CPT  1  0.290432982114  0.456036806936
OG2D3    CY  1  0.302014665450  0.391600943002
OG2D3   CAI  1  0.302014665450  0.391600943002
OG2D3    CT  1  0.293996576986  0.144938011577
OG2D3   CT1  1  0.293996576986  0.144938011577
OG2D3   CT2  1  0.293996576986  0.144938011577
OG2D3  CT2A  1  0.293996576986  0.144938011577
OG2D3   CT3  1  0.293996576986  0.144938011577
OG2D3    C3  1  0.327405278917  0.204973301676
OG2D3     H  1  0.144726496762  0.310857403193
OG2D3    HA  1  0.242324451334  0.214977812437
OG2D3   HB1  1  0.242324451334  0.214977812437
OG2D3   HB2  1  0.244106248770  0.242527681224
OG2D3   HE1  1  0.236088160307  0.255189702614
OG2D3   HE2  1  0.236979059025  0.233705521373
OG2D3    HC  1  0.144726496762  0.310857403193
OG2D3    HP  1  0.245727684437  0.251040000000
OG2D3   HR1  1  0.204906705172  0.310857403193
OG2D3   HR2  1  0.187088730809  0.310857403193
OG2D3   HR3  1  0.255509752363  0.128005785869
OG2D3    HS  1  0.164816262856  0.458334236120
OG2D3   HA1  1  0.244106248770  0.307459952514
OG2D3   HA2  1  0.244106248770  0.267252488258
OG2D3   HA3  1  0.244106248770  0.224537002029
OG2D3     N  1  0.289542083396  0.014493801158
OG2D3   NC2  1  0.289542083396  0.648182492821
OG2D3   NH1  1  0.262815121851  0.648182492821
OG2D3   NH2  1  0.289542083396  0.648182492821
OG2D3   NH3  1  0.289542083396  0.648182492821
OG2D3    NP  1  0.289542083396  0.648182492821
OG2D3   NR1  1  0.289542083396  0.648182492821
OG2D3   NR2  1  0.289542083396  0.648182492821
OG2D3   NR3  1  0.289542083396  0.648182492821
OG2D3    NY  1  0.289542083396  0.648182492821
OG2D3     O  1  0.249451641079  0.502080000000
OG2D3    OB  1  0.249451641079  0.502080000000
OG2D3    OC  1  0.276178602624  0.502080000000
OG2D3   OH1  1  0.282414893650  0.565258245152
OG2D3    OS  1  0.282414893650  0.565258245152
OG2D3     S  1  0.302905564168  0.972273739232
OG2D3    SM  1  0.300678317372  0.893457908130
OG2D3    SS  1  0.320723538531  0.993644945843
OG2D3  HGA1  1  0.244106248770  0.307459952514
OG2D3  HGA2  1  0.244106248770  0.271154190821
OG2D3  HGA3  1  0.244106248770  0.224537002029
OG2D3  HGA4  1  0.236088160307  0.255189702614
OG2D3  HGA5  1  0.236979059025  0.233705521373
OG2D3  HGA6  1  0.242324451334  0.242527681224
OG2D3  HGA7  1  0.240542653898  0.251040000000
OG2D3 HGAAM0  1  0.238760856462  0.242527681224
OG2D3 HGAAM1  1  0.238760856462  0.242527681224
OG2D3 HGAAM2  1  0.236979059025  0.289876023155
OG2D3  HGP1  1  0.144726496762  0.310857403193
OG2D3  HGP2  1  0.144726496762  0.310857403193
OG2D3  HGP3  1  0.164816262856  0.458334236120
OG2D3  HGP4  1  0.144726496762  0.310857403193
OG2D3  HGP5  1  0.187088730809  0.310857403193
OG2D3 HGPAM1  1  0.202679458377  0.137500270836
OG2D3 HGPAM2  1  0.202679458377  0.144938011577
OG2D3 HGPAM3  1  0.202234009018  0.158771636762
OG2D3 HGR51  1  0.245727684437  0.251040000000
OG2D3 HGR52  1  0.204906705172  0.310857403193
OG2D3 HGR53  1  0.187088730809  0.310857403193
OG2D3 HGR61  1  0.245727684437  0.251040000000
OG2D3 HGR62  1  0.222724679535  0.310857403193
OG2D3 HGR63  1  0.204906705172  0.310857403193
OG2D3 HGR71  1  0.245727684437  0.251040000000
OG2D3 HGTIP3  1  0.144726496762  0.310857403193
OG2D3 CG1T1  1  0.288651184677  0.592298365893
OG2D3 CG1T2  1  0.302237390129  0.465609837422
OG2D3 CG1N1  1  0.291323880832  0.614919905028
OG2D3 CG2D1  1  0.310923652631  0.377952093472
OG2D3 CG2D2  1  0.310032753913  0.366667388896
OG2D3 CG2D1O  1  0.310923652631  0.377952093472
OG2D3 CG2D2O  1  0.310923652631  0.377952093472
OG2D3 CG2DC1  1  0.310923652631  0.377952093472
OG2D3 CG2DC2  1  0.310923652631  0.377952093472
OG2D3 CG2DC3  1  0.310032753913  0.366667388896
OG2D3 CG2N1  1  0.302905564168  0.480705002262
OG2D3 CG2N2  1  0.302905564168  0.480705002262
OG2D3 CG2O1  1  0.302905564168  0.480705002262
OG2D3 CG2O2  1  0.276178602624  0.453727744975
OG2D3 CG2O3  1  0.302905564168  0.383469934154
OG2D3 CG2O4  1  0.285087589805  0.355024172698
OG2D3 CG2O5  1  0.302905564168  0.434814034732
OG2D3 CG2O6  1  0.302905564168  0.383469934154
OG2D3 CG2O7  1  0.263973290185  0.349056954894
OG2D3 CG2R51  1  0.311814551349  0.324091246411
OG2D3 CG2R52  1  0.320723538531  0.204973301676
OG2D3 CG2R53  1  0.320723538531  0.204973301676
OG2D3 CG2R57  1  0.311814551349  0.324091246411
OG2D3 CG25C1  1  0.310923652631  0.377952093472
OG2D3 CG25C2  1  0.310923652631  0.377952093472
OG2D3 CG251O  1  0.310923652631  0.377952093472
OG2D3 CG252O  1  0.310923652631  0.377952093472
OG2D3 CG2R61  1  0.302228481142  0.383469934154
OG2D3 CG2R62  1  0.293996576986  0.434814034732
OG2D3 CG2R63  1  0.293996576986  0.458334236120
OG2D3 CG2R64  1  0.311814551349  0.289876023155
OG2D3 CG2R66  1  0.293996576986  0.383469934154
OG2D3 CG2R67  1  0.302228481142  0.383469934154
OG2D3 CG2RC0  1  0.290432982114  0.456036806936
OG2D3 CG2R71  1  0.302442296834  0.375162741007
OG2D3 CG2RC7  1  0.290432982114  0.456036806936
OG2D3 CG301  1  0.293996576986  0.144938011577
OG2D3 CG302  1  0.329632525712  0.204973301676
OG2D3 CG311  1  0.293996576986  0.144938011577
OG2D3 CG312  1  0.307360057758  0.297034533750
OG2D3 CG314  1  0.293996576986  0.144938011577
OG2D3 CG321  1  0.293996576986  0.144938011577
OG2D3 CG322  1  0.293996576986  0.355024172698
OG2D3 CG323  1  0.320723538531  0.480705002262
OG2D3 CG324  1  0.293996576986  0.144938011577
OG2D3 CG331  1  0.293996576986  0.144938011577
OG2D3 CG334  1  0.293996576986  0.144938011577
OG2D3 CG3C50  1  0.293996576986  0.144938011577
OG2D3 CG3C51  1  0.293996576986  0.144938011577
OG2D3 CG3C52  1  0.293996576986  0.144938011577
OG2D3 CG3C53  1  0.293996576986  0.144938011577
OG2D3 CG3C54  1  0.293996576986  0.144938011577
OG2D3 CG3C31  1  0.293996576986  0.144938011577
OG2D3 CG3C41  1  0.293996576986  0.144938011577
OG2D3 CG3RC1  1  0.293996576986  0.144938011577
OG2D3 CG3AM0  1  0.300232868013  0.383469934154
OG2D3 CG3AM1  1  0.301123766731  0.404789837027
OG2D3 CG3AM2  1  0.302014665450  0.409946603352
OG2D3 NG1T1  1  0.284196691087  0.614919905028
OG2D3 NG2D1  1  0.289542083396  0.648182492821
OG2D3 NG2S0  1  0.289542083396  0.014493801158
OG2D3 NG2S1  1  0.262815121851  0.648182492821
OG2D3 NG2S2  1  0.289542083396  0.648182492821
OG2D3 NG2S3  1  0.289542083396  0.648182492821
OG2D3 NG2O1  1  0.289542083396  0.648182492821
OG2D3 NG2P1  1  0.289542083396  0.648182492821
OG2D3 NG2R43  1  0.289542083396  0.648182492821
OG2D3 NG2R50  1  0.289542083396  0.648182492821
OG2D3 NG2R51  1  0.289542083396  0.648182492821
OG2D3 NG2R52  1  0.289542083396  0.648182492821
OG2D3 NG2R53  1  0.289542083396  0.648182492821
OG2D3 NG2R57  1  0.289542083396  0.648182492821
OG2D3 NG2R60  1  0.293105678268  0.355024172698
OG2D3 NG2R61  1  0.289542083396  0.648182492821
OG2D3 NG2R62  1  0.308250956477  0.324091246411
OG2D3 NG2R67  1  0.289542083396  0.648182492821
OG2D3 NG2RC0  1  0.289542083396  0.648182492821
OG2D3 NG301  1  0.302905564168  0.271154190821
OG2D3 NG311  1  0.302905564168  0.307459952514
OG2D3 NG321  1  0.302014665450  0.355024172698
OG2D3 NG331  1  0.301123766731  0.383469934154
OG2D3 NG3C51  1  0.289542083396  0.648182492821
OG2D3 NG3N1  1  0.307360057758  0.355024172698
OG2D3 NG3P0  1  0.289542083396  0.648182492821
OG2D3 NG3P1  1  0.289542083396  0.648182492821
OG2D3 NG3P2  1  0.289542083396  0.648182492821
OG2D3 NG3P3  1  0.289542083396  0.648182492821
OG2D3 OG2D1  1  0.249451641079  0.502080000000
OG2D3 OG2D2  1  0.276178602624  0.502080000000
OG2D3 OG2D3  1  0.249451641079  0.502080000000
OG2D3 OG2D4  1  0.276178602624  0.502080000000
OG2D3 OG2D5  1  0.275465883649  0.588740986173
OG2D3 OG2N1  1  0.276178602624  0.502080000000
OG2D3 OG2P1  1  0.276178602624  0.502080000000
OG2D3 OG2R50  1  0.276178602624  0.502080000000
OG2D3 OG3R60  1  0.271724109033  0.458334236120
OG2D3 OG301  1  0.271724109033  0.458334236120
OG2D3 OG302  1  0.271724109033  0.458334236120
OG2D3 OG303  1  0.271724109033  0.458334236120
OG2D3 OG304  1  0.271724109033  0.458334236120
OG2D3 OG311  1  0.281969444291  0.635251912639
OG2D3 OG312  1  0.280633096214  0.502080000000
OG2D3 OG3C31  1  0.271724109033  0.458334236120
OG2D3 OG3C51  1  0.271724109033  0.458334236120
OG2D3 OG3C61  1  0.271724109033  0.458334236120
OG2D3 OGTIP3  1  0.282254531881  0.565258245152
OG2D3 SG2D1  1  0.307360057758  1.089448042267
OG2D3 SG2R50  1  0.302905564168  0.972273739232
OG2D3 SG311  1  0.302905564168  0.972273739232
OG2D3 SG301  1  0.300678317372  0.893457908130
OG2D3 SG302  1  0.320723538531  0.993644945843
OG2D3 SG3O1  1  0.311814551349  0.993644945843
OG2D3 SG3O2  1  0.302905564168  0.857464840095
OG2D3 SG3O3  1  0.302905564168  0.857464840095
OG2D3  FGA1  1  0.269942311597  0.532536259047
OG2D3  FGA2  1  0.269942311597  0.469652835188
OG2D3  FGA3  1  0.267269615442  0.451406871724
OG2D3  FGP1  1  0.267269615442  0.451406871724
OG2D3  FGR1  1  0.276178602624  0.502080000000
OG2D3 CLGA1  1  0.294887475704  0.848846884285
OG2D3 CLGA3  1  0.294887475704  0.806980695680
OG2D3 BRGA1  1  0.300232868013  1.004160000000
OG2D3 BRGA2  1  0.307360057758  1.055164651417
OG2D3 BRGA3  1  0.302905564168  1.065072518094
OG2D3   SOD  1  0.250409357201  0.313883668846
OG2D3   CLA  1  0.326959829558  0.561342505072
OG2D3   PG0  1  0.316269044940  1.108562623941
OG2D3   PG1  1  0.316269044940  1.108562623941
OG2D3   PG2  1  0.316269044940  1.108562623941
OG2D3  ALG1  1  0.302905564168  1.168527606863
OG2D3   LPH  1  0.124725820540  0.000000000000
OG2D3 CLGR1  1  0.290432982114  0.695098284849
OG2D3 BRGR1  1  0.301123766731  0.819893206704
OG2D3  IGR1  1  0.324287133403  1.045162865012
OG2D3 SG2P1  1  0.311253285157  1.151139989652
OG2D3 OG2S1  1  0.274361169238  0.546744910407
OG2D3 SG2P2  1  0.307769871169  1.141151004963
OG2D3 SEGD1  1  0.318496291735  1.144000784335
OG2D3 BG201  1  0.351904993665  0.282536198318
OG2D3 CC301  1  0.293996576986  0.144938011577
OG2D3 CC3062  1  0.293996576986  0.144938011577
OG2D3 CC311  1  0.293996576986  0.144938011577
OG2D3 CC3161  1  0.293996576986  0.144938011577
OG2D3 CC3162  1  0.293996576986  0.144938011577
OG2D3 CC3163  1  0.293996576986  0.144938011577
OG2D3 CC321  1  0.293996576986  0.144938011577
OG2D3 CC3261  1  0.293996576986  0.144938011577
OG2D3 CC3263  1  0.293996576986  0.144938011577
OG2D3 CC331  1  0.293996576986  0.144938011577
OG2D3 CC2O1  1  0.302905564168  0.480705002262
OG2D3 CC2O2  1  0.302905564168  0.383469934154
OG2D3 CC2O3  1  0.302905564168  0.434814034732
OG2D3 CC2O4  1  0.285087589805  0.355024172698
OG2D3 CC2O5  1  0.276178602624  0.453727744975
OG2D3 OC2D1  1  0.249451641079  0.502080000000
OG2D3 OC2D2  1  0.276178602624  0.502080000000
OG2D3 OC2D3  1  0.249451641079  0.502080000000
OG2D3 OC2D4  1  0.249451641079  0.502080000000
OG2D3 OC3C61  1  0.271724109033  0.458334236120
OG2D3 OC311  1  0.281969444291  0.635251912639
OG2D3 NC2D1  1  0.262815121851  0.648182492821
OG2D3  HCP1  1  0.144726496762  0.310857403193
OG2D3  HCA1  1  0.244106248770  0.307459952514
OG2D3  HCA2  1  0.244106248770  0.271154190821
OG2D3  HCA3  1  0.244106248770  0.224537002029
OG2D3 CC312  1  0.293996576986  0.144938011577
OG2D3 CC322  1  0.293996576986  0.144938011577
OG2D3  HCR1  1  0.195997717991  0.310857403193
OG2D3 HCA3M  1  0.244106248770  0.224537002029
OG2D3 CC321C  1  0.293996576986  0.144938011577
OG2D3 CC321D  1  0.293996576986  0.144938011577
OG2D3 CC311C  1  0.293996576986  0.144938011577
OG2D3 CC311D  1  0.293996576986  0.144938011577
OG2D3 OC301  1  0.271724109033  0.458334236120
OG2D3 OC302  1  0.271724109033  0.458334236120
OG2D3 HCP1M  1  0.144726496762  0.310857403193
OG2D3 OC311M  1  0.281969444291  0.635251912639
OG2D3 OC3C5M  1  0.271724109033  0.458334236120
OG2D3 CC322C  1  0.293996576986  0.144938011577
OG2D3 HCA2C2  1  0.240542653898  0.271154190821
OG2D3 CC312C  1  0.293996576986  0.144938011577
OG2D3 HCA1C2  1  0.244106248770  0.307459952514
OG2D3 OC3C51  1  0.271724109033  0.458334236120
OG2D3 CC3152  1  0.293996576986  0.144938011577
OG2D3 CC3051  1  0.293996576986  0.144938011577
OG2D3 CC3251  1  0.293996576986  0.144938011577
OG2D3 CC3151  1  0.293996576986  0.144938011577
OG2D3 CC3153  1  0.293996576986  0.144938011577
OG2D3 OC2DP  1  0.276178602624  0.502080000000
OG2D3 OC312  1  0.282414893650  0.565258245152
OG2D3 OC30P  1  0.282414893650  0.565258245152
OG2D3    PC  1  0.316269044940  1.108562623941
OG2D3    SC  1  0.311814551349  0.993644945843
OG2D3 CC312D  1  0.293996576986  0.144938011577
OG2D3 OC303  1  0.271724109033  0.458334236120
OG2D3 NC311  1  0.302905564168  0.307459952514
OG2D3   HN1  1  0.144726496762  0.310857403193
OG2D3   HN2  1  0.144726496762  0.310857403193
OG2D3   HN3  1  0.222724679535  0.310857403193
OG2D3   HN4  1  0.144726496762  0.310857403193
OG2D3   HN5  1  0.144726496762  0.310857403193
OG2D3   HN6  1  0.242324451334  0.214977812437
OG2D3   HN7  1  0.242324451334  0.214977812437
OG2D3   HN8  1  0.244106248770  0.242527681224
OG2D3   HN9  1  0.244106248770  0.224537002029
OG2D3   NN1  1  0.289542083396  0.648182492821
OG2D3   NN2  1  0.289542083396  0.648182492821
OG2D3  NN2B  1  0.289542083396  0.648182492821
OG2D3  NN2G  1  0.289542083396  0.648182492821
OG2D3  NN2U  1  0.289542083396  0.648182492821
OG2D3   NN3  1  0.289542083396  0.648182492821
OG2D3  NN3A  1  0.289542083396  0.648182492821
OG2D3  NN3G  1  0.289542083396  0.648182492821
OG2D3   NN4  1  0.289542083396  0.648182492821
OG2D3   NN6  1  0.289542083396  0.648182492821
OG2D3   ON1  1  0.276178602624  0.502080000000
OG2D3  ON1C  1  0.276178602624  0.502080000000
OG2D3   ON2  1  0.282414893650  0.565258245152
OG2D3   ON3  1  0.276178602624  0.502080000000
OG2D3   ON4  1  0.282414893650  0.565258245152
OG2D3   ON5  1  0.282414893650  0.565258245152
OG2D3   ON6  1  0.282414893650  0.565258245152
OG2D3  ON6B  1  0.282414893650  0.565258245152
OG2D3   CN1  1  0.293996576986  0.458334236120
OG2D3  CN1T  1  0.293996576986  0.458334236120
OG2D3   CN2  1  0.293996576986  0.458334236120
OG2D3   CN3  1  0.293996576986  0.434814034732
OG2D3  CN3T  1  0.293996576986  0.434814034732
OG2D3   CN4  1  0.293996576986  0.396929091904
OG2D3   CN5  1  0.293996576986  0.396929091904
OG2D3  CN5G  1  0.293996576986  0.396929091904
OG2D3   CN7  1  0.293996576986  0.144938011577
OG2D3  CN7B  1  0.293996576986  0.144938011577
OG2D3   CN8  1  0.293996576986  0.144938011577
OG2D3  CN8B  1  0.293996576986  0.144938011577
OG2D3   CN9  1  0.293996576986  0.144938011577
OG2D3     P  1  0.316269044940  1.108562623941
OG2D3    P2  1  0.316269044940  1.108562623941
OG2D3    P3  1  0.316269044940  1.108562623941
OG2D3    P4  1  0.316269044940  1.108562623941
OG2D3   HOL  1  0.144726496762  0.310857403193
OG2D3  HAL1  1  0.242324451334  0.214977812437
OG2D3  HAL2  1  0.244106248770  0.242527681224
OG2D3  HAL3  1  0.244106248770  0.224537002029
OG2D3   HBL  1  0.242324451334  0.214977812437
OG2D3   HCL  1  0.144726496762  0.310857403193
OG2D3    HL  1  0.187088730809  0.310857403193
OG2D3  HEL1  1  0.236088160307  0.255189702614
OG2D3  HEL2  1  0.236979059025  0.233705521373
OG2D3    CL  1  0.302905564168  0.383469934154
OG2D3   CCL  1  0.302905564168  0.383469934154
OG2D3  CTL1  1  0.293996576986  0.144938011577
OG2D3  CTL2  1  0.293996576986  0.144938011577
OG2D3  CTL3  1  0.293996576986  0.144938011577
OG2D3  CTL5  1  0.293996576986  0.144938011577
OG2D3  CEL1  1  0.310923652631  0.377952093472
OG2D3  CEL2  1  0.310032753913  0.366667388896
OG2D3  CRL1  1  0.293996576986  0.144938011577
OG2D3  CRL2  1  0.293996576986  0.144938011577
OG2D3   OBL  1  0.249451641079  0.502080000000
OG2D3   OCL  1  0.276178602624  0.502080000000
OG2D3   O2L  1  0.276178602624  0.502080000000
OG2D3   OHL  1  0.282414893650  0.565258245152
OG2D3   OSL  1  0.271724109033  0.458334236120
OG2D3  OSLP  1  0.271724109033  0.458334236120
OG2D3  NH3L  1  0.289542083396  0.648182492821
OG2D3   NTL  1  0.289542083396  0.648182492821
OG2D3    SL  1  0.311814551349  0.993644945843
OG2D3    PL  1  0.316269044940  1.108562623941
OG2D3 HCA1A  1  0.244106248770  0.307459952514
OG2D3 HCA2A  1  0.244106248770  0.271154190821
OG2D3 HCA3A  1  0.244106248770  0.224537002029
OG2D3 CC30A  1  0.293996576986  0.144938011577
OG2D3 CC31A  1  0.293996576986  0.144938011577
OG2D3 CC32A  1  0.293996576986  0.144938011577
OG2D3 CC33A  1  0.293996576986  0.144938011577
OG2D3 CC326A  1  0.293996576986  0.144938011577
OG2D3 HCA25A  1  0.240542653898  0.271154190821
OG2D3 CC325A  1  0.293996576986  0.144938011577
OG2D3 CC325B  1  0.293996576986  0.144938011577
OG2D3 OC305A  1  0.271724109033  0.458334236120
OG2D3 OC30A  1  0.271724109033  0.458334236120
OG2D3  HSIO  1  0.144726496762  0.310857403193
OG2D3  HSIA  1  0.242324451334  0.214977812437
OG2D3   HAL  1  0.242324451334  0.214977812437
OG2D3    AL  1  0.320723538531  1.168527606863
OG2D3    SI  1  0.320723538531  1.122685010143
OG2D3  SIH3  1  0.320723538531  1.122685010143
OG2D3  OSIH  1  0.282414893650  0.565258245152
OG2D3  OSIE  1  0.282414893650  0.565258245152
OG2D3  OSIA  1  0.282414893650  0.565258245152
OG2D3   OAL  1  0.282414893650  0.565258245152
OG2D3    HT  1  0.144726496762  0.310857403193
OG2D3    OT  1  0.282254531881  0.565258245152
OG2D3   DUM  1  0.124725820540  0.000000000000
OG2D3    CM  1  0.311814551349  0.480705002262
OG2D3   CPA  1  0.285087589805  0.434814034732
OG2D3   CPB  1  0.285087589805  0.434814034732
OG2D3   CPM  1  0.285087589805  0.434814034732
OG2D3   CST  1  0.263973290185  0.349056954894
OG2D3  CT1X  1  0.293996576986  0.144938011577
OG2D3  CT2X  1  0.293996576986  0.144938011577
OG2D3  CT3X  1  0.293996576986  0.144938011577
OG2D3    HB  1  0.242324451334  0.214977812437
OG2D3   NPH  1  0.289542083396  0.648182492821
OG2D3    OM  1  0.276178602624  0.502080000000
OG2D3   OST  1  0.275465883649  0.588740986173
OG2D3   POT  1  0.281858081952  0.427505715330
OG2D3   CAL  1  0.246511675309  0.502080000000
OG2D3    MG  1  0.230297318639  0.177512086349
OG2D3   CES  1  0.311814551349  0.631770145543
OG2D3    ZN  1  0.221833780817  0.724690057887
OG2D3    FE  1  0.182634237219  0.000000000000
OG2D3    HE  1  0.256578830824  0.211381046583
OG2D3    NE  1  0.261033324415  0.425041684920
OG2D3  CLAL  1  0.294727113935  0.251040000000
OG2D3    AG  1  0.256356106145  3.095028982611
OG2D3    AU  1  0.256177926401  3.333574266279
OG2D3    CU  1  0.241255372872  3.148859609192
OG2D3    NI  1  0.238404496974  3.445137205976
OG2D3    PB  1  0.283528517048  2.480939130571
OG2D3    PD  1  0.250297994862  3.594345799725
OG2D3    PT  1  0.251456163195  4.047898370266
OG2D3   CAP  1  0.302228481142  0.383469934154
OG2D3    FA  1  0.276178602624  0.502080000000
OG2D3    CN  1  0.280633096214  0.648182492821
OG2D3    NC  1  0.289542083396  1.122685010143
OG2D3   OCA  1  0.249451641079  0.502080000000
OG2D3   COA  1  0.302905564168  0.480705002262
OG2D3   CF1  1  0.293996576986  0.355024172698
OG2D3   CF2  1  0.307360057758  0.297034533750
OG2D3   CF3  1  0.329632525712  0.204973301676
OG2D3   HF1  1  0.242324451334  0.242527681224
OG2D3   HF2  1  0.240542653898  0.251040000000
OG2D3    F1  1  0.269942311597  0.532536259047
OG2D3    F2  1  0.269942311597  0.469652835188
OG2D3    F3  1  0.267269615442  0.451406871724
OG2D3    OX  1  0.276178602624  0.502080000000
OG2D3    HX  1  0.144726496762  0.310857403193
OG2D3  HPER  1  0.144726496762  0.310857403193
OG2D3  OPER  1  0.273882756627  0.654375459843
OG2D3   LIT  1  0.240319929218  0.069961684782
OG2D3   RUB  1  0.293996576986  0.561342505072
OG2D3   BAR  1  0.293105678268  0.561342505072
OG2D3   CAD  1  0.245620776591  0.502080000000
OG2D3  ON2B  1  0.282414893650  0.565258245152
OG2D3    SP  1  0.320723538531  0.972273739232
OG2D3   HNP  1  0.245727684437  0.251040000000
OG2D3  HNE1  1  0.236088160307  0.255189702614
OG2D3  HNE2  1  0.236979059025  0.233705521373
OG2D3  CN3D  1  0.293996576986  0.434814034732
OG2D3  CNE1  1  0.310923652631  0.377952093472
OG2D3  CNE2  1  0.310032753913  0.366667388896
OG2D3   CNA  1  0.302228481142  0.383469934154
OG2D3  CNA2  1  0.293996576986  0.383469934154
OG2D3   CNG  1  0.302905564168  0.480705002262
OG2D3  NN1C  1  0.289542083396  0.648182492821
OG2D3  NN2C  1  0.289542083396  0.648182492821
OG2D3  NN3I  1  0.289542083396  0.648182492821
OG2D3   NNG  1  0.289542083396  0.648182492821
OG2D3   FNA  1  0.276178602624  0.502080000000
OG2D3  ON2M  1  0.271724109033  0.458334236120
OG2D3   CN6  1  0.293996576986  0.144938011577
OG2D3  CN7E  1  0.293996576986  0.144938011577
OG2D3  CT2P  1  0.293996576986  0.144938011577
OG2D3  CTD1  1  0.293996576986  0.144938011577
OG2D3  CPD1  1  0.293996576986  0.144938011577
OG2D3  CC1A  1  0.310923652631  0.377952093472
OG2D3  CC1B  1  0.310923652631  0.377952093472
OG2D3   CC2  1  0.310032753913  0.366667388896
OG2D3   NS1  1  0.289542083396  0.648182492821
OG2D3   NS2  1  0.289542083396  0.648182492821
OG2D3   NHL  1  0.262815121851  0.648182492821
OG2D3  CTO1  1  0.293996576986  0.144938011577
OG2D3  CEL3  1  0.310923652631  0.377952093472
OG2D3  CTO2  1  0.293996576986  0.144938011577
OG2D3  HN3B  1  0.204906705172  0.310857403193
OG2D3  CN1A  1  0.302905564168  0.383469934154
OG2D3  CN3A  1  0.285087589805  0.614919905028
OG2D3  CN3B  1  0.285087589805  0.614919905028
OG2D3  CN3C  1  0.285087589805  0.614919905028
CC301     C  1  0.347450500075  0.138767581228
CC301    CA  1  0.346773417049  0.110698234855
CC301    CC  1  0.347450500075  0.110698234855
CC301    CD  1  0.347450500075  0.110698234855
CC301   CE1  1  0.355468588538  0.109105371453
CC301   CE2  1  0.354577689820  0.105847757841
CC301   CP1  1  0.338541512893  0.041840000000
CC301   CP2  1  0.338541512893  0.041840000000
CC301   CP3  1  0.338541512893  0.041840000000
CC301  CPH1  1  0.329632525712  0.093557084179
CC301  CPH2  1  0.329632525712  0.093557084179
CC301    CS  1  0.365268474438  0.138767581228
CC301   CPT  1  0.334977918021  0.131646486622
CC301    CY  1  0.346559601357  0.113045454929
CC301   CAI  1  0.346559601357  0.113045454929
CC301    CT  1  0.338541512893  0.041840000000
CC301   CT1  1  0.338541512893  0.041840000000
CC301   CT2  1  0.338541512893  0.041840000000
CC301  CT2A  1  0.338541512893  0.041840000000
CC301   CT3  1  0.338541512893  0.041840000000
CC301    C3  1  0.371950214824  0.059170695450
CC301     H  1  0.189271432669  0.089736802707
CC301    HA  1  0.286869387241  0.062058748940
CC301   HB1  1  0.286869387241  0.062058748940
CC301   HB2  1  0.288651184677  0.070011711020
CC301   HE1  1  0.280633096214  0.073666921749
CC301   HE2  1  0.281523994932  0.067464972838
CC301    HC  1  0.189271432669  0.089736802707
CC301    HP  1  0.290272620344  0.072469005789
CC301   HR1  1  0.249451641079  0.089736802707
CC301   HR2  1  0.231633666716  0.089736802707
CC301   HR3  1  0.300054688270  0.036952087465
CC301    HS  1  0.209361198763  0.132309697301
CC301   HA1  1  0.288651184677  0.088756043175
CC301   HA2  1  0.288651184677  0.077149148019
CC301   HA3  1  0.288651184677  0.064818249282
CC301     N  1  0.334087019303  0.004184000000
CC301   NC2  1  0.334087019303  0.187114168357
CC301   NH1  1  0.307360057758  0.187114168357
CC301   NH2  1  0.334087019303  0.187114168357
CC301   NH3  1  0.334087019303  0.187114168357
CC301    NP  1  0.334087019303  0.187114168357
CC301   NR1  1  0.334087019303  0.187114168357
CC301   NR2  1  0.334087019303  0.187114168357
CC301   NR3  1  0.334087019303  0.187114168357
CC301    NY  1  0.334087019303  0.187114168357
CC301     O  1  0.293996576986  0.144938011577
CC301    OB  1  0.293996576986  0.144938011577
CC301    OC  1  0.320723538531  0.144938011577
CC301   OH1  1  0.326959829558  0.163176000000
CC301    OS  1  0.326959829558  0.163176000000
CC301     S  1  0.347450500075  0.280671252536
CC301    SM  1  0.345223253279  0.257919081884
CC301    SS  1  0.365268474438  0.286840588481
CC301  HGA1  1  0.288651184677  0.088756043175
CC301  HGA2  1  0.288651184677  0.078275472531
CC301  HGA3  1  0.288651184677  0.064818249282
CC301  HGA4  1  0.280633096214  0.073666921749
CC301  HGA5  1  0.281523994932  0.067464972838
CC301  HGA6  1  0.286869387241  0.070011711020
CC301  HGA7  1  0.285087589805  0.072469005789
CC301 HGAAM0  1  0.283305792369  0.070011711020
CC301 HGAAM1  1  0.283305792369  0.070011711020
CC301 HGAAM2  1  0.281523994932  0.083680000000
CC301  HGP1  1  0.189271432669  0.089736802707
CC301  HGP2  1  0.189271432669  0.089736802707
CC301  HGP3  1  0.209361198763  0.132309697301
CC301  HGP4  1  0.189271432669  0.089736802707
CC301  HGP5  1  0.231633666716  0.089736802707
CC301 HGPAM1  1  0.247224394284  0.039692909190
CC301 HGPAM2  1  0.247224394284  0.041840000000
CC301 HGPAM3  1  0.246778944925  0.045833423612
CC301 HGR51  1  0.290272620344  0.072469005789
CC301 HGR52  1  0.249451641079  0.089736802707
CC301 HGR53  1  0.231633666716  0.089736802707
CC301 HGR61  1  0.290272620344  0.072469005789
CC301 HGR62  1  0.267269615442  0.089736802707
CC301 HGR63  1  0.249451641079  0.089736802707
CC301 HGR71  1  0.290272620344  0.072469005789
CC301 HGTIP3  1  0.189271432669  0.089736802707
CC301 CG1T1  1  0.333196120584  0.170981810495
CC301 CG1T2  1  0.346782326036  0.134409982486
CC301 CG1N1  1  0.335868816739  0.177512086349
CC301 CG2D1  1  0.355468588538  0.109105371453
CC301 CG2D2  1  0.354577689820  0.105847757841
CC301 CG2D1O  1  0.355468588538  0.109105371453
CC301 CG2D2O  1  0.355468588538  0.109105371453
CC301 CG2DC1  1  0.355468588538  0.109105371453
CC301 CG2DC2  1  0.355468588538  0.109105371453
CC301 CG2DC3  1  0.354577689820  0.105847757841
CC301 CG2N1  1  0.347450500075  0.138767581228
CC301 CG2N2  1  0.347450500075  0.138767581228
CC301 CG2O1  1  0.347450500075  0.138767581228
CC301 CG2O2  1  0.320723538531  0.130979917850
CC301 CG2O3  1  0.347450500075  0.110698234855
CC301 CG2O4  1  0.329632525712  0.102486650838
CC301 CG2O5  1  0.347450500075  0.125520000000
CC301 CG2O6  1  0.347450500075  0.110698234855
CC301 CG2O7  1  0.308518226092  0.100764063435
CC301 CG2R51  1  0.356359487256  0.093557084179
CC301 CG2R52  1  0.365268474438  0.059170695450
CC301 CG2R53  1  0.365268474438  0.059170695450
CC301 CG2R57  1  0.356359487256  0.093557084179
CC301 CG25C1  1  0.355468588538  0.109105371453
CC301 CG25C2  1  0.355468588538  0.109105371453
CC301 CG251O  1  0.355468588538  0.109105371453
CC301 CG252O  1  0.355468588538  0.109105371453
CC301 CG2R61  1  0.346773417049  0.110698234855
CC301 CG2R62  1  0.338541512893  0.125520000000
CC301 CG2R63  1  0.338541512893  0.132309697301
CC301 CG2R64  1  0.356359487256  0.083680000000
CC301 CG2R66  1  0.338541512893  0.110698234855
CC301 CG2R67  1  0.346773417049  0.110698234855
CC301 CG2RC0  1  0.334977918021  0.131646486622
CC301 CG2R71  1  0.346987232741  0.108300154755
CC301 CG2RC7  1  0.334977918021  0.131646486622
CC301 CG301  1  0.338541512893  0.041840000000
CC301 CG302  1  0.374177461619  0.059170695450
CC301 CG311  1  0.338541512893  0.041840000000
CC301 CG312  1  0.351904993665  0.085746484010
CC301 CG314  1  0.338541512893  0.041840000000
CC301 CG321  1  0.338541512893  0.041840000000
CC301 CG322  1  0.338541512893  0.102486650838
CC301 CG323  1  0.365268474438  0.138767581228
CC301 CG324  1  0.338541512893  0.041840000000
CC301 CG331  1  0.338541512893  0.041840000000
CC301 CG334  1  0.338541512893  0.041840000000
CC301 CG3C50  1  0.338541512893  0.041840000000
CC301 CG3C51  1  0.338541512893  0.041840000000
CC301 CG3C52  1  0.338541512893  0.041840000000
CC301 CG3C53  1  0.338541512893  0.041840000000
CC301 CG3C54  1  0.338541512893  0.041840000000
CC301 CG3C31  1  0.338541512893  0.041840000000
CC301 CG3C41  1  0.338541512893  0.041840000000
CC301 CG3RC1  1  0.338541512893  0.041840000000
CC301 CG3AM0  1  0.344777803920  0.110698234855
CC301 CG3AM1  1  0.345668702638  0.116852760686
CC301 CG3AM2  1  0.346559601357  0.118341390899
CC301 NG1T1  1  0.328741626994  0.177512086349
CC301 NG2D1  1  0.334087019303  0.187114168357
CC301 NG2S0  1  0.334087019303  0.004184000000
CC301 NG2S1  1  0.307360057758  0.187114168357
CC301 NG2S2  1  0.334087019303  0.187114168357
CC301 NG2S3  1  0.334087019303  0.187114168357
CC301 NG2O1  1  0.334087019303  0.187114168357
CC301 NG2P1  1  0.334087019303  0.187114168357
CC301 NG2R43  1  0.334087019303  0.187114168357
CC301 NG2R50  1  0.334087019303  0.187114168357
CC301 NG2R51  1  0.334087019303  0.187114168357
CC301 NG2R52  1  0.334087019303  0.187114168357
CC301 NG2R53  1  0.334087019303  0.187114168357
CC301 NG2R57  1  0.334087019303  0.187114168357
CC301 NG2R60  1  0.337650614175  0.102486650838
CC301 NG2R61  1  0.334087019303  0.187114168357
CC301 NG2R62  1  0.352795892384  0.093557084179
CC301 NG2R67  1  0.334087019303  0.187114168357
CC301 NG2RC0  1  0.334087019303  0.187114168357
CC301 NG301  1  0.347450500075  0.078275472531
CC301 NG311  1  0.347450500075  0.088756043175
CC301 NG321  1  0.346559601357  0.102486650838
CC301 NG331  1  0.345668702638  0.110698234855
CC301 NG3C51  1  0.334087019303  0.187114168357
CC301 NG3N1  1  0.351904993665  0.102486650838
CC301 NG3P0  1  0.334087019303  0.187114168357
CC301 NG3P1  1  0.334087019303  0.187114168357
CC301 NG3P2  1  0.334087019303  0.187114168357
CC301 NG3P3  1  0.334087019303  0.187114168357
CC301 OG2D1  1  0.293996576986  0.144938011577
CC301 OG2D2  1  0.320723538531  0.144938011577
CC301 OG2D3  1  0.293996576986  0.144938011577
CC301 OG2D4  1  0.320723538531  0.144938011577
CC301 OG2D5  1  0.320010819556  0.169954883425
CC301 OG2N1  1  0.320723538531  0.144938011577
CC301 OG2P1  1  0.320723538531  0.144938011577
CC301 OG2R50  1  0.320723538531  0.144938011577
CC301 OG3R60  1  0.316269044940  0.132309697301
CC301 OG301  1  0.316269044940  0.132309697301
CC301 OG302  1  0.316269044940  0.132309697301
CC301 OG303  1  0.316269044940  0.132309697301
CC301 OG304  1  0.316269044940  0.132309697301
CC301 OG311  1  0.326514380198  0.183381431383
CC301 OG312  1  0.325178032121  0.144938011577
CC301 OG3C31  1  0.316269044940  0.132309697301
CC301 OG3C51  1  0.316269044940  0.132309697301
CC301 OG3C61  1  0.316269044940  0.132309697301
CC301 OGTIP3  1  0.326799467788  0.163176000000
CC301 SG2D1  1  0.351904993665  0.314496560236
CC301 SG2R50  1  0.347450500075  0.280671252536
CC301 SG311  1  0.347450500075  0.280671252536
CC301 SG301  1  0.345223253279  0.257919081884
CC301 SG302  1  0.365268474438  0.286840588481
CC301 SG3O1  1  0.356359487256  0.286840588481
CC301 SG3O2  1  0.347450500075  0.247528778125
CC301 SG3O3  1  0.347450500075  0.247528778125
CC301  FGA1  1  0.314487247504  0.153729976257
CC301  FGA2  1  0.314487247504  0.135577095411
CC301  FGA3  1  0.311814551349  0.130309939452
CC301  FGP1  1  0.311814551349  0.130309939452
CC301  FGR1  1  0.320723538531  0.144938011577
CC301 CLGA1  1  0.339432411611  0.245040988571
CC301 CLGA3  1  0.339432411611  0.232955260941
CC301 BRGA1  1  0.344777803920  0.289876023155
CC301 BRGA2  1  0.351904993665  0.304599797767
CC301 BRGA3  1  0.347450500075  0.307459952514
CC301   SOD  1  0.294954293108  0.090610410351
CC301   CLA  1  0.371504765465  0.162045623205
CC301   PG0  1  0.360813980847  0.320014464673
CC301   PG1  1  0.360813980847  0.320014464673
CC301   PG2  1  0.360813980847  0.320014464673
CC301  ALG1  1  0.347450500075  0.337324864189
CC301   LPH  1  0.169270756447  0.000000000000
CC301 CLGR1  1  0.334977918021  0.200657590935
CC301 BRGR1  1  0.345668702638  0.236682781799
CC301  IGR1  1  0.368832069310  0.301712530731
CC301 SG2P1  1  0.355798221064  0.332305491450
CC301 OG2S1  1  0.318906105146  0.157831660601
CC301 SG2P2  1  0.352314807076  0.329421919951
CC301 SEGD1  1  0.363041227642  0.330244580395
CC301 BG201  1  0.396449929572  0.081561175077
CC301 CC301  1  0.338541512893  0.041840000000
CC301 CC3062  1  0.338541512893  0.041840000000
CC301 CC311  1  0.338541512893  0.041840000000
CC301 CC3161  1  0.338541512893  0.041840000000
CC301 CC3162  1  0.338541512893  0.041840000000
CC301 CC3163  1  0.338541512893  0.041840000000
CC301 CC321  1  0.338541512893  0.041840000000
CC301 CC3261  1  0.338541512893  0.041840000000
CC301 CC3263  1  0.338541512893  0.041840000000
CC301 CC331  1  0.338541512893  0.041840000000
CC301 CC2O1  1  0.347450500075  0.138767581228
CC301 CC2O2  1  0.347450500075  0.110698234855
CC301 CC2O3  1  0.347450500075  0.125520000000
CC301 CC2O4  1  0.329632525712  0.102486650838
CC301 CC2O5  1  0.320723538531  0.130979917850
CC301 OC2D1  1  0.293996576986  0.144938011577
CC301 OC2D2  1  0.320723538531  0.144938011577
CC301 OC2D3  1  0.293996576986  0.144938011577
CC301 OC2D4  1  0.293996576986  0.144938011577
CC301 OC3C61  1  0.316269044940  0.132309697301
CC301 OC311  1  0.326514380198  0.183381431383
CC301 NC2D1  1  0.307360057758  0.187114168357
CC301  HCP1  1  0.189271432669  0.089736802707
CC301  HCA1  1  0.288651184677  0.088756043175
CC301  HCA2  1  0.288651184677  0.078275472531
CC301  HCA3  1  0.288651184677  0.064818249282
CC301 CC312  1  0.338541512893  0.041840000000
CC301 CC322  1  0.338541512893  0.041840000000
CC301  HCR1  1  0.240542653898  0.089736802707
CC301 HCA3M  1  0.288651184677  0.064818249282
CC301 CC321C  1  0.338541512893  0.041840000000
CC301 CC321D  1  0.338541512893  0.041840000000
CC301 CC311C  1  0.338541512893  0.041840000000
CC301 CC311D  1  0.338541512893  0.041840000000
CC301 OC301  1  0.316269044940  0.132309697301
CC301 OC302  1  0.316269044940  0.132309697301
CC301 HCP1M  1  0.189271432669  0.089736802707
CC301 OC311M  1  0.326514380198  0.183381431383
CC301 OC3C5M  1  0.316269044940  0.132309697301
CC301 CC322C  1  0.338541512893  0.041840000000
CC301 HCA2C2  1  0.285087589805  0.078275472531
CC301 CC312C  1  0.338541512893  0.041840000000
CC301 HCA1C2  1  0.288651184677  0.088756043175
CC301 OC3C51  1  0.316269044940  0.132309697301
CC301 CC3152  1  0.338541512893  0.041840000000
CC301 CC3051  1  0.338541512893  0.041840000000
CC301 CC3251  1  0.338541512893  0.041840000000
CC301 CC3151  1  0.338541512893  0.041840000000
CC301 CC3153  1  0.338541512893  0.041840000000
CC301 OC2DP  1  0.320723538531  0.144938011577
CC301 OC312  1  0.326959829558  0.163176000000
CC301 OC30P  1  0.326959829558  0.163176000000
CC301    PC  1  0.360813980847  0.320014464673
CC301    SC  1  0.356359487256  0.286840588481
CC301 CC312D  1  0.338541512893  0.041840000000
CC301 OC303  1  0.316269044940  0.132309697301
CC301 NC311  1  0.347450500075  0.088756043175
CC301   HN1  1  0.189271432669  0.089736802707
CC301   HN2  1  0.189271432669  0.089736802707
CC301   HN3  1  0.267269615442  0.089736802707
CC301   HN4  1  0.189271432669  0.089736802707
CC301   HN5  1  0.189271432669  0.089736802707
CC301   HN6  1  0.286869387241  0.062058748940
CC301   HN7  1  0.286869387241  0.062058748940
CC301   HN8  1  0.288651184677  0.070011711020
CC301   HN9  1  0.288651184677  0.064818249282
CC301   NN1  1  0.334087019303  0.187114168357
CC301   NN2  1  0.334087019303  0.187114168357
CC301  NN2B  1  0.334087019303  0.187114168357
CC301  NN2G  1  0.334087019303  0.187114168357
CC301  NN2U  1  0.334087019303  0.187114168357
CC301   NN3  1  0.334087019303  0.187114168357
CC301  NN3A  1  0.334087019303  0.187114168357
CC301  NN3G  1  0.334087019303  0.187114168357
CC301   NN4  1  0.334087019303  0.187114168357
CC301   NN6  1  0.334087019303  0.187114168357
CC301   ON1  1  0.320723538531  0.144938011577
CC301  ON1C  1  0.320723538531  0.144938011577
CC301   ON2  1  0.326959829558  0.163176000000
CC301   ON3  1  0.320723538531  0.144938011577
CC301   ON4  1  0.326959829558  0.163176000000
CC301   ON5  1  0.326959829558  0.163176000000
CC301   ON6  1  0.326959829558  0.163176000000
CC301  ON6B  1  0.326959829558  0.163176000000
CC301   CN1  1  0.338541512893  0.132309697301
CC301  CN1T  1  0.338541512893  0.132309697301
CC301   CN2  1  0.338541512893  0.132309697301
CC301   CN3  1  0.338541512893  0.125520000000
CC301  CN3T  1  0.338541512893  0.125520000000
CC301   CN4  1  0.338541512893  0.114583559030
CC301   CN5  1  0.338541512893  0.114583559030
CC301  CN5G  1  0.338541512893  0.114583559030
CC301   CN7  1  0.338541512893  0.041840000000
CC301  CN7B  1  0.338541512893  0.041840000000
CC301   CN8  1  0.338541512893  0.041840000000
CC301  CN8B  1  0.338541512893  0.041840000000
CC301   CN9  1  0.338541512893  0.041840000000
CC301     P  1  0.360813980847  0.320014464673
CC301    P2  1  0.360813980847  0.320014464673
CC301    P3  1  0.360813980847  0.320014464673
CC301    P4  1  0.360813980847  0.320014464673
CC301   HOL  1  0.189271432669  0.089736802707
CC301  HAL1  1  0.286869387241  0.062058748940
CC301  HAL2  1  0.288651184677  0.070011711020
CC301  HAL3  1  0.288651184677  0.064818249282
CC301   HBL  1  0.286869387241  0.062058748940
CC301   HCL  1  0.189271432669  0.089736802707
CC301    HL  1  0.231633666716  0.089736802707
CC301  HEL1  1  0.280633096214  0.073666921749
CC301  HEL2  1  0.281523994932  0.067464972838
CC301    CL  1  0.347450500075  0.110698234855
CC301   CCL  1  0.347450500075  0.110698234855
CC301  CTL1  1  0.338541512893  0.041840000000
CC301  CTL2  1  0.338541512893  0.041840000000
CC301  CTL3  1  0.338541512893  0.041840000000
CC301  CTL5  1  0.338541512893  0.041840000000
CC301  CEL1  1  0.355468588538  0.109105371453
CC301  CEL2  1  0.354577689820  0.105847757841
CC301  CRL1  1  0.338541512893  0.041840000000
CC301  CRL2  1  0.338541512893  0.041840000000
CC301   OBL  1  0.293996576986  0.144938011577
CC301   OCL  1  0.320723538531  0.144938011577
CC301   O2L  1  0.320723538531  0.144938011577
CC301   OHL  1  0.326959829558  0.163176000000
CC301   OSL  1  0.316269044940  0.132309697301
CC301  OSLP  1  0.316269044940  0.132309697301
CC301  NH3L  1  0.334087019303  0.187114168357
CC301   NTL  1  0.334087019303  0.187114168357
CC301    SL  1  0.356359487256  0.286840588481
CC301    PL  1  0.360813980847  0.320014464673
CC301 HCA1A  1  0.288651184677  0.088756043175
CC301 HCA2A  1  0.288651184677  0.078275472531
CC301 HCA3A  1  0.288651184677  0.064818249282
CC301 CC30A  1  0.338541512893  0.041840000000
CC301 CC31A  1  0.338541512893  0.041840000000
CC301 CC32A  1  0.338541512893  0.041840000000
CC301 CC33A  1  0.338541512893  0.041840000000
CC301 CC326A  1  0.338541512893  0.041840000000
CC301 HCA25A  1  0.285087589805  0.078275472531
CC301 CC325A  1  0.338541512893  0.041840000000
CC301 CC325B  1  0.338541512893  0.041840000000
CC301 OC305A  1  0.316269044940  0.132309697301
CC301 OC30A  1  0.316269044940  0.132309697301
CC301  HSIO  1  0.189271432669  0.089736802707
CC301  HSIA  1  0.286869387241  0.062058748940
CC301   HAL  1  0.286869387241  0.062058748940
CC301    AL  1  0.365268474438  0.337324864189
CC301    SI  1  0.365268474438  0.324091246411
CC301  SIH3  1  0.365268474438  0.324091246411
CC301  OSIH  1  0.326959829558  0.163176000000
CC301  OSIE  1  0.326959829558  0.163176000000
CC301  OSIA  1  0.326959829558  0.163176000000
CC301   OAL  1  0.326959829558  0.163176000000
CC301    HT  1  0.189271432669  0.089736802707
CC301    OT  1  0.326799467788  0.163176000000
CC301   DUM  1  0.169270756447  0.000000000000
CC301    CM  1  0.356359487256  0.138767581228
CC301   CPA  1  0.329632525712  0.125520000000
CC301   CPB  1  0.329632525712  0.125520000000
CC301   CPM  1  0.329632525712  0.125520000000
CC301   CST  1  0.308518226092  0.100764063435
CC301  CT1X  1  0.338541512893  0.041840000000
CC301  CT2X  1  0.338541512893  0.041840000000
CC301  CT3X  1  0.338541512893  0.041840000000
CC301    HB  1  0.286869387241  0.062058748940
CC301   NPH  1  0.334087019303  0.187114168357
CC301    OM  1  0.320723538531  0.144938011577
CC301   OST  1  0.320010819556  0.169954883425
CC301   POT  1  0.326403017859  0.123410269913
CC301   CAL  1  0.291056611216  0.144938011577
CC301    MG  1  0.274842254546  0.051243325419
CC301   CES  1  0.356359487256  0.182376331798
CC301    ZN  1  0.266378716724  0.209200000000
CC301    FE  1  0.227179173126  0.000000000000
CC301    HE  1  0.301123766731  0.061020452073
CC301    NE  1  0.305578260322  0.122698965603
CC301  CLAL  1  0.339272049842  0.072469005789
CC301    AG  1  0.300901042052  0.893457908130
CC301    AU  1  0.300722862308  0.962320000000
CC301    CU  1  0.285800308779  0.908997471504
CC301    NI  1  0.282949432881  0.994525446633
CC301    PB  1  0.328073452955  0.716185437439
CC301    PD  1  0.294842930769  1.037598257516
CC301    PT  1  0.296001099102  1.168527606863
CC301   CAP  1  0.346773417049  0.110698234855
CC301    FA  1  0.320723538531  0.144938011577
CC301    CN  1  0.325178032121  0.187114168357
CC301    NC  1  0.334087019303  0.324091246411
CC301   OCA  1  0.293996576986  0.144938011577
CC301   COA  1  0.347450500075  0.138767581228
CC301   CF1  1  0.338541512893  0.102486650838
CC301   CF2  1  0.351904993665  0.085746484010
CC301   CF3  1  0.374177461619  0.059170695450
CC301   HF1  1  0.286869387241  0.070011711020
CC301   HF2  1  0.285087589805  0.072469005789
CC301    F1  1  0.314487247504  0.153729976257
CC301    F2  1  0.314487247504  0.135577095411
CC301    F3  1  0.311814551349  0.130309939452
CC301    OX  1  0.320723538531  0.144938011577
CC301    HX  1  0.189271432669  0.089736802707
CC301  HPER  1  0.189271432669  0.089736802707
CC301  OPER  1  0.318427692534  0.188901923946
CC301   LIT  1  0.284864865125  0.020196198771
CC301   RUB  1  0.338541512893  0.162045623205
CC301   BAR  1  0.337650614175  0.162045623205
CC301   CAD  1  0.290165712498  0.144938011577
CC301  ON2B  1  0.326959829558  0.163176000000
CC301    SP  1  0.365268474438  0.280671252536
CC301   HNP  1  0.290272620344  0.072469005789
CC301  HNE1  1  0.280633096214  0.073666921749
CC301  HNE2  1  0.281523994932  0.067464972838
CC301  CN3D  1  0.338541512893  0.125520000000
CC301  CNE1  1  0.355468588538  0.109105371453
CC301  CNE2  1  0.354577689820  0.105847757841
CC301   CNA  1  0.346773417049  0.110698234855
CC301  CNA2  1  0.338541512893  0.110698234855
CC301   CNG  1  0.347450500075  0.138767581228
CC301  NN1C  1  0.334087019303  0.187114168357
CC301  NN2C  1  0.334087019303  0.187114168357
CC301  NN3I  1  0.334087019303  0.187114168357
CC301   NNG  1  0.334087019303  0.187114168357
CC301   FNA  1  0.320723538531  0.144938011577
CC301  ON2M  1  0.316269044940  0.132309697301
CC301   CN6  1  0.338541512893  0.041840000000
CC301  CN7E  1  0.338541512893  0.041840000000
CC301  CT2P  1  0.338541512893  0.041840000000
CC301  CTD1  1  0.338541512893  0.041840000000
CC301  CPD1  1  0.338541512893  0.041840000000
CC301  CC1A  1  0.355468588538  0.109105371453
CC301  CC1B  1  0.355468588538  0.109105371453
CC301   CC2  1  0.354577689820  0.105847757841
CC301   NS1  1  0.334087019303  0.187114168357
CC301   NS2  1  0.334087019303  0.187114168357
CC301   NHL  1  0.307360057758  0.187114168357
CC301  CTO1  1  0.338541512893  0.041840000000
CC301  CEL3  1  0.355468588538  0.109105371453
CC301  CTO2  1  0.338541512893  0.041840000000
CC301  HN3B  1  0.249451641079  0.089736802707
CC301  CN1A  1  0.347450500075  0.110698234855
CC301  CN3A  1  0.329632525712  0.177512086349
CC301  CN3B  1  0.329632525712  0.177512086349
CC301  CN3C  1  0.329632525712  0.177512086349
CC3062     C  1  0.347450500075  0.138767581228
CC3062    CA  1  0.346773417049  0.110698234855
CC3062    CC  1  0.347450500075  0.110698234855
CC3062    CD  1  0.347450500075  0.110698234855
CC3062   CE1  1  0.355468588538  0.109105371453
CC3062   CE2  1  0.354577689820  0.105847757841
CC3062   CP1  1  0.338541512893  0.041840000000
CC3062   CP2  1  0.338541512893  0.041840000000
CC3062   CP3  1  0.338541512893  0.041840000000
CC3062  CPH1  1  0.329632525712  0.093557084179
CC3062  CPH2  1  0.329632525712  0.093557084179
CC3062    CS  1  0.365268474438  0.138767581228
CC3062   CPT  1  0.334977918021  0.131646486622
CC3062    CY  1  0.346559601357  0.113045454929
CC3062   CAI  1  0.346559601357  0.113045454929
CC3062    CT  1  0.338541512893  0.041840000000
CC3062   CT1  1  0.338541512893  0.041840000000
CC3062   CT2  1  0.338541512893  0.041840000000
CC3062  CT2A  1  0.338541512893  0.041840000000
CC3062   CT3  1  0.338541512893  0.041840000000
CC3062    C3  1  0.371950214824  0.059170695450
CC3062     H  1  0.189271432669  0.089736802707
CC3062    HA  1  0.286869387241  0.062058748940
CC3062   HB1  1  0.286869387241  0.062058748940
CC3062   HB2  1  0.288651184677  0.070011711020
CC3062   HE1  1  0.280633096214  0.073666921749
CC3062   HE2  1  0.281523994932  0.067464972838
CC3062    HC  1  0.189271432669  0.089736802707
CC3062    HP  1  0.290272620344  0.072469005789
CC3062   HR1  1  0.249451641079  0.089736802707
CC3062   HR2  1  0.231633666716  0.089736802707
CC3062   HR3  1  0.300054688270  0.036952087465
CC3062    HS  1  0.209361198763  0.132309697301
CC3062   HA1  1  0.288651184677  0.088756043175
CC3062   HA2  1  0.288651184677  0.077149148019
CC3062   HA3  1  0.288651184677  0.064818249282
CC3062     N  1  0.334087019303  0.004184000000
CC3062   NC2  1  0.334087019303  0.187114168357
CC3062   NH1  1  0.307360057758  0.187114168357
CC3062   NH2  1  0.334087019303  0.187114168357
CC3062   NH3  1  0.334087019303  0.187114168357
CC3062    NP  1  0.334087019303  0.187114168357
CC3062   NR1  1  0.334087019303  0.187114168357
CC3062   NR2  1  0.334087019303  0.187114168357
CC3062   NR3  1  0.334087019303  0.187114168357
CC3062    NY  1  0.334087019303  0.187114168357
CC3062     O  1  0.293996576986  0.144938011577
CC3062    OB  1  0.293996576986  0.144938011577
CC3062    OC  1  0.320723538531  0.144938011577
CC3062   OH1  1  0.326959829558  0.163176000000
CC3062    OS  1  0.326959829558  0.163176000000
CC3062     S  1  0.347450500075  0.280671252536
CC3062    SM  1  0.345223253279  0.257919081884
CC3062    SS  1  0.365268474438  0.286840588481
CC3062  HGA1  1  0.288651184677  0.088756043175
CC3062  HGA2  1  0.288651184677  0.078275472531
CC3062  HGA3  1  0.288651184677  0.064818249282
CC3062  HGA4  1  0.280633096214  0.073666921749
CC3062  HGA5  1  0.281523994932  0.067464972838
CC3062  HGA6  1  0.286869387241  0.070011711020
CC3062  HGA7  1  0.285087589805  0.072469005789
CC3062 HGAAM0  1  0.283305792369  0.070011711020
CC3062 HGAAM1  1  0.283305792369  0.070011711020
CC3062 HGAAM2  1  0.281523994932  0.083680000000
CC3062  HGP1  1  0.189271432669  0.089736802707
CC3062  HGP2  1  0.189271432669  0.089736802707
CC3062  HGP3  1  0.209361198763  0.132309697301
CC3062  HGP4  1  0.189271432669  0.089736802707
CC3062  HGP5  1  0.231633666716  0.089736802707
CC3062 HGPAM1  1  0.247224394284  0.039692909190
CC3062 HGPAM2  1  0.247224394284  0.041840000000
CC3062 HGPAM3  1  0.246778944925  0.045833423612
CC3062 HGR51  1  0.290272620344  0.072469005789
CC3062 HGR52  1  0.249451641079  0.089736802707
CC3062 HGR53  1  0.231633666716  0.089736802707
CC3062 HGR61  1  0.290272620344  0.072469005789
CC3062 HGR62  1  0.267269615442  0.089736802707
CC3062 HGR63  1  0.249451641079  0.089736802707
CC3062 HGR71  1  0.290272620344  0.072469005789
CC3062 HGTIP3  1  0.189271432669  0.089736802707
CC3062 CG1T1  1  0.333196120584  0.170981810495
CC3062 CG1T2  1  0.346782326036  0.134409982486
CC3062 CG1N1  1  0.335868816739  0.177512086349
CC3062 CG2D1  1  0.355468588538  0.109105371453
CC3062 CG2D2  1  0.354577689820  0.105847757841
CC3062 CG2D1O  1  0.355468588538  0.109105371453
CC3062 CG2D2O  1  0.355468588538  0.109105371453
CC3062 CG2DC1  1  0.355468588538  0.109105371453
CC3062 CG2DC2  1  0.355468588538  0.109105371453
CC3062 CG2DC3  1  0.354577689820  0.105847757841
CC3062 CG2N1  1  0.347450500075  0.138767581228
CC3062 CG2N2  1  0.347450500075  0.138767581228
CC3062 CG2O1  1  0.347450500075  0.138767581228
CC3062 CG2O2  1  0.320723538531  0.130979917850
CC3062 CG2O3  1  0.347450500075  0.110698234855
CC3062 CG2O4  1  0.329632525712  0.102486650838
CC3062 CG2O5  1  0.347450500075  0.125520000000
CC3062 CG2O6  1  0.347450500075  0.110698234855
CC3062 CG2O7  1  0.308518226092  0.100764063435
CC3062 CG2R51  1  0.356359487256  0.093557084179
CC3062 CG2R52  1  0.365268474438  0.059170695450
CC3062 CG2R53  1  0.365268474438  0.059170695450
CC3062 CG2R57  1  0.356359487256  0.093557084179
CC3062 CG25C1  1  0.355468588538  0.109105371453
CC3062 CG25C2  1  0.355468588538  0.109105371453
CC3062 CG251O  1  0.355468588538  0.109105371453
CC3062 CG252O  1  0.355468588538  0.109105371453
CC3062 CG2R61  1  0.346773417049  0.110698234855
CC3062 CG2R62  1  0.338541512893  0.125520000000
CC3062 CG2R63  1  0.338541512893  0.132309697301
CC3062 CG2R64  1  0.356359487256  0.083680000000
CC3062 CG2R66  1  0.338541512893  0.110698234855
CC3062 CG2R67  1  0.346773417049  0.110698234855
CC3062 CG2RC0  1  0.334977918021  0.131646486622
CC3062 CG2R71  1  0.346987232741  0.108300154755
CC3062 CG2RC7  1  0.334977918021  0.131646486622
CC3062 CG301  1  0.338541512893  0.041840000000
CC3062 CG302  1  0.374177461619  0.059170695450
CC3062 CG311  1  0.338541512893  0.041840000000
CC3062 CG312  1  0.351904993665  0.085746484010
CC3062 CG314  1  0.338541512893  0.041840000000
CC3062 CG321  1  0.338541512893  0.041840000000
CC3062 CG322  1  0.338541512893  0.102486650838
CC3062 CG323  1  0.365268474438  0.138767581228
CC3062 CG324  1  0.338541512893  0.041840000000
CC3062 CG331  1  0.338541512893  0.041840000000
CC3062 CG334  1  0.338541512893  0.041840000000
CC3062 CG3C50  1  0.338541512893  0.041840000000
CC3062 CG3C51  1  0.338541512893  0.041840000000
CC3062 CG3C52  1  0.338541512893  0.041840000000
CC3062 CG3C53  1  0.338541512893  0.041840000000
CC3062 CG3C54  1  0.338541512893  0.041840000000
CC3062 CG3C31  1  0.338541512893  0.041840000000
CC3062 CG3C41  1  0.338541512893  0.041840000000
CC3062 CG3RC1  1  0.338541512893  0.041840000000
CC3062 CG3AM0  1  0.344777803920  0.110698234855
CC3062 CG3AM1  1  0.345668702638  0.116852760686
CC3062 CG3AM2  1  0.346559601357  0.118341390899
CC3062 NG1T1  1  0.328741626994  0.177512086349
CC3062 NG2D1  1  0.334087019303  0.187114168357
CC3062 NG2S0  1  0.334087019303  0.004184000000
CC3062 NG2S1  1  0.307360057758  0.187114168357
CC3062 NG2S2  1  0.334087019303  0.187114168357
CC3062 NG2S3  1  0.334087019303  0.187114168357
CC3062 NG2O1  1  0.334087019303  0.187114168357
CC3062 NG2P1  1  0.334087019303  0.187114168357
CC3062 NG2R43  1  0.334087019303  0.187114168357
CC3062 NG2R50  1  0.334087019303  0.187114168357
CC3062 NG2R51  1  0.334087019303  0.187114168357
CC3062 NG2R52  1  0.334087019303  0.187114168357
CC3062 NG2R53  1  0.334087019303  0.187114168357
CC3062 NG2R57  1  0.334087019303  0.187114168357
CC3062 NG2R60  1  0.337650614175  0.102486650838
CC3062 NG2R61  1  0.334087019303  0.187114168357
CC3062 NG2R62  1  0.352795892384  0.093557084179
CC3062 NG2R67  1  0.334087019303  0.187114168357
CC3062 NG2RC0  1  0.334087019303  0.187114168357
CC3062 NG301  1  0.347450500075  0.078275472531
CC3062 NG311  1  0.347450500075  0.088756043175
CC3062 NG321  1  0.346559601357  0.102486650838
CC3062 NG331  1  0.345668702638  0.110698234855
CC3062 NG3C51  1  0.334087019303  0.187114168357
CC3062 NG3N1  1  0.351904993665  0.102486650838
CC3062 NG3P0  1  0.334087019303  0.187114168357
CC3062 NG3P1  1  0.334087019303  0.187114168357
CC3062 NG3P2  1  0.334087019303  0.187114168357
CC3062 NG3P3  1  0.334087019303  0.187114168357
CC3062 OG2D1  1  0.293996576986  0.144938011577
CC3062 OG2D2  1  0.320723538531  0.144938011577
CC3062 OG2D3  1  0.293996576986  0.144938011577
CC3062 OG2D4  1  0.320723538531  0.144938011577
CC3062 OG2D5  1  0.320010819556  0.169954883425
CC3062 OG2N1  1  0.320723538531  0.144938011577
CC3062 OG2P1  1  0.320723538531  0.144938011577
CC3062 OG2R50  1  0.320723538531  0.144938011577
CC3062 OG3R60  1  0.316269044940  0.132309697301
CC3062 OG301  1  0.316269044940  0.132309697301
CC3062 OG302  1  0.316269044940  0.132309697301
CC3062 OG303  1  0.316269044940  0.132309697301
CC3062 OG304  1  0.316269044940  0.132309697301
CC3062 OG311  1  0.326514380198  0.183381431383
CC3062 OG312  1  0.325178032121  0.144938011577
CC3062 OG3C31  1  0.316269044940  0.132309697301
CC3062 OG3C51  1  0.316269044940  0.132309697301
CC3062 OG3C61  1  0.316269044940  0.132309697301
CC3062 OGTIP3  1  0.326799467788  0.163176000000
CC3062 SG2D1  1  0.351904993665  0.314496560236
CC3062 SG2R50  1  0.347450500075  0.280671252536
CC3062 SG311  1  0.347450500075  0.280671252536
CC3062 SG301  1  0.345223253279  0.257919081884
CC3062 SG302  1  0.365268474438  0.286840588481
CC3062 SG3O1  1  0.356359487256  0.286840588481
CC3062 SG3O2  1  0.347450500075  0.247528778125
CC3062 SG3O3  1  0.347450500075  0.247528778125
CC3062  FGA1  1  0.314487247504  0.153729976257
CC3062  FGA2  1  0.314487247504  0.135577095411
CC3062  FGA3  1  0.311814551349  0.130309939452
CC3062  FGP1  1  0.311814551349  0.130309939452
CC3062  FGR1  1  0.320723538531  0.144938011577
CC3062 CLGA1  1  0.339432411611  0.245040988571
CC3062 CLGA3  1  0.339432411611  0.232955260941
CC3062 BRGA1  1  0.344777803920  0.289876023155
CC3062 BRGA2  1  0.351904993665  0.304599797767
CC3062 BRGA3  1  0.347450500075  0.307459952514
CC3062   SOD  1  0.294954293108  0.090610410351
CC3062   CLA  1  0.371504765465  0.162045623205
CC3062   PG0  1  0.360813980847  0.320014464673
CC3062   PG1  1  0.360813980847  0.320014464673
CC3062   PG2  1  0.360813980847  0.320014464673
CC3062  ALG1  1  0.347450500075  0.337324864189
CC3062   LPH  1  0.169270756447  0.000000000000
CC3062 CLGR1  1  0.334977918021  0.200657590935
CC3062 BRGR1  1  0.345668702638  0.236682781799
CC3062  IGR1  1  0.368832069310  0.301712530731
CC3062 SG2P1  1  0.355798221064  0.332305491450
CC3062 OG2S1  1  0.318906105146  0.157831660601
CC3062 SG2P2  1  0.352314807076  0.329421919951
CC3062 SEGD1  1  0.363041227642  0.330244580395
CC3062 BG201  1  0.396449929572  0.081561175077
CC3062 CC301  1  0.338541512893  0.041840000000
CC3062 CC3062  1  0.338541512893  0.041840000000
CC3062 CC311  1  0.338541512893  0.041840000000
CC3062 CC3161  1  0.338541512893  0.041840000000
CC3062 CC3162  1  0.338541512893  0.041840000000
CC3062 CC3163  1  0.338541512893  0.041840000000
CC3062 CC321  1  0.338541512893  0.041840000000
CC3062 CC3261  1  0.338541512893  0.041840000000
CC3062 CC3263  1  0.338541512893  0.041840000000
CC3062 CC331  1  0.338541512893  0.041840000000
CC3062 CC2O1  1  0.347450500075  0.138767581228
CC3062 CC2O2  1  0.347450500075  0.110698234855
CC3062 CC2O3  1  0.347450500075  0.125520000000
CC3062 CC2O4  1  0.329632525712  0.102486650838
CC3062 CC2O5  1  0.320723538531  0.130979917850
CC3062 OC2D1  1  0.293996576986  0.144938011577
CC3062 OC2D2  1  0.320723538531  0.144938011577
CC3062 OC2D3  1  0.293996576986  0.144938011577
CC3062 OC2D4  1  0.293996576986  0.144938011577
CC3062 OC3C61  1  0.316269044940  0.132309697301
CC3062 OC311  1  0.326514380198  0.183381431383
CC3062 NC2D1  1  0.307360057758  0.187114168357
CC3062  HCP1  1  0.189271432669  0.089736802707
CC3062  HCA1  1  0.288651184677  0.088756043175
CC3062  HCA2  1  0.288651184677  0.078275472531
CC3062  HCA3  1  0.288651184677  0.064818249282
CC3062 CC312  1  0.338541512893  0.041840000000
CC3062 CC322  1  0.338541512893  0.041840000000
CC3062  HCR1  1  0.240542653898  0.089736802707
CC3062 HCA3M  1  0.288651184677  0.064818249282
CC3062 CC321C  1  0.338541512893  0.041840000000
CC3062 CC321D  1  0.338541512893  0.041840000000
CC3062 CC311C  1  0.338541512893  0.041840000000
CC3062 CC311D  1  0.338541512893  0.041840000000
CC3062 OC301  1  0.316269044940  0.132309697301
CC3062 OC302  1  0.316269044940  0.132309697301
CC3062 HCP1M  1  0.189271432669  0.089736802707
CC3062 OC311M  1  0.326514380198  0.183381431383
CC3062 OC3C5M  1  0.316269044940  0.132309697301
CC3062 CC322C  1  0.338541512893  0.041840000000
CC3062 HCA2C2  1  0.285087589805  0.078275472531
CC3062 CC312C  1  0.338541512893  0.041840000000
CC3062 HCA1C2  1  0.288651184677  0.088756043175
CC3062 OC3C51  1  0.316269044940  0.132309697301
CC3062 CC3152  1  0.338541512893  0.041840000000
CC3062 CC3051  1  0.338541512893  0.041840000000
CC3062 CC3251  1  0.338541512893  0.041840000000
CC3062 CC3151  1  0.338541512893  0.041840000000
CC3062 CC3153  1  0.338541512893  0.041840000000
CC3062 OC2DP  1  0.320723538531  0.144938011577
CC3062 OC312  1  0.326959829558  0.163176000000
CC3062 OC30P  1  0.326959829558  0.163176000000
CC3062    PC  1  0.360813980847  0.320014464673
CC3062    SC  1  0.356359487256  0.286840588481
CC3062 CC312D  1  0.338541512893  0.041840000000
CC3062 OC303  1  0.316269044940  0.132309697301
CC3062 NC311  1  0.347450500075  0.088756043175
CC3062   HN1  1  0.189271432669  0.089736802707
CC3062   HN2  1  0.189271432669  0.089736802707
CC3062   HN3  1  0.267269615442  0.089736802707
CC3062   HN4  1  0.189271432669  0.089736802707
CC3062   HN5  1  0.189271432669  0.089736802707
CC3062   HN6  1  0.286869387241  0.062058748940
CC3062   HN7  1  0.286869387241  0.062058748940
CC3062   HN8  1  0.288651184677  0.070011711020
CC3062   HN9  1  0.288651184677  0.064818249282
CC3062   NN1  1  0.334087019303  0.187114168357
CC3062   NN2  1  0.334087019303  0.187114168357
CC3062  NN2B  1  0.334087019303  0.187114168357
CC3062  NN2G  1  0.334087019303  0.187114168357
CC3062  NN2U  1  0.334087019303  0.187114168357
CC3062   NN3  1  0.334087019303  0.187114168357
CC3062  NN3A  1  0.334087019303  0.187114168357
CC3062  NN3G  1  0.334087019303  0.187114168357
CC3062   NN4  1  0.334087019303  0.187114168357
CC3062   NN6  1  0.334087019303  0.187114168357
CC3062   ON1  1  0.320723538531  0.144938011577
CC3062  ON1C  1  0.320723538531  0.144938011577
CC3062   ON2  1  0.326959829558  0.163176000000
CC3062   ON3  1  0.320723538531  0.144938011577
CC3062   ON4  1  0.326959829558  0.163176000000
CC3062   ON5  1  0.326959829558  0.163176000000
CC3062   ON6  1  0.326959829558  0.163176000000
CC3062  ON6B  1  0.326959829558  0.163176000000
CC3062   CN1  1  0.338541512893  0.132309697301
CC3062  CN1T  1  0.338541512893  0.132309697301
CC3062   CN2  1  0.338541512893  0.132309697301
CC3062   CN3  1  0.338541512893  0.125520000000
CC3062  CN3T  1  0.338541512893  0.125520000000
CC3062   CN4  1  0.338541512893  0.114583559030
CC3062   CN5  1  0.338541512893  0.114583559030
CC3062  CN5G  1  0.338541512893  0.114583559030
CC3062   CN7  1  0.338541512893  0.041840000000
CC3062  CN7B  1  0.338541512893  0.041840000000
CC3062   CN8  1  0.338541512893  0.041840000000
CC3062  CN8B  1  0.338541512893  0.041840000000
CC3062   CN9  1  0.338541512893  0.041840000000
CC3062     P  1  0.360813980847  0.320014464673
CC3062    P2  1  0.360813980847  0.320014464673
CC3062    P3  1  0.360813980847  0.320014464673
CC3062    P4  1  0.360813980847  0.320014464673
CC3062   HOL  1  0.189271432669  0.089736802707
CC3062  HAL1  1  0.286869387241  0.062058748940
CC3062  HAL2  1  0.288651184677  0.070011711020
CC3062  HAL3  1  0.288651184677  0.064818249282
CC3062   HBL  1  0.286869387241  0.062058748940
CC3062   HCL  1  0.189271432669  0.089736802707
CC3062    HL  1  0.231633666716  0.089736802707
CC3062  HEL1  1  0.280633096214  0.073666921749
CC3062  HEL2  1  0.281523994932  0.067464972838
CC3062    CL  1  0.347450500075  0.110698234855
CC3062   CCL  1  0.347450500075  0.110698234855
CC3062  CTL1  1  0.338541512893  0.041840000000
CC3062  CTL2  1  0.338541512893  0.041840000000
CC3062  CTL3  1  0.338541512893  0.041840000000
CC3062  CTL5  1  0.338541512893  0.041840000000
CC3062  CEL1  1  0.355468588538  0.109105371453
CC3062  CEL2  1  0.354577689820  0.105847757841
CC3062  CRL1  1  0.338541512893  0.041840000000
CC3062  CRL2  1  0.338541512893  0.041840000000
CC3062   OBL  1  0.293996576986  0.144938011577
CC3062   OCL  1  0.320723538531  0.144938011577
CC3062   O2L  1  0.320723538531  0.144938011577
CC3062   OHL  1  0.326959829558  0.163176000000
CC3062   OSL  1  0.316269044940  0.132309697301
CC3062  OSLP  1  0.316269044940  0.132309697301
CC3062  NH3L  1  0.334087019303  0.187114168357
CC3062   NTL  1  0.334087019303  0.187114168357
CC3062    SL  1  0.356359487256  0.286840588481
CC3062    PL  1  0.360813980847  0.320014464673
CC3062 HCA1A  1  0.288651184677  0.088756043175
CC3062 HCA2A  1  0.288651184677  0.078275472531
CC3062 HCA3A  1  0.288651184677  0.064818249282
CC3062 CC30A  1  0.338541512893  0.041840000000
CC3062 CC31A  1  0.338541512893  0.041840000000
CC3062 CC32A  1  0.338541512893  0.041840000000
CC3062 CC33A  1  0.338541512893  0.041840000000
CC3062 CC326A  1  0.338541512893  0.041840000000
CC3062 HCA25A  1  0.285087589805  0.078275472531
CC3062 CC325A  1  0.338541512893  0.041840000000
CC3062 CC325B  1  0.338541512893  0.041840000000
CC3062 OC305A  1  0.316269044940  0.132309697301
CC3062 OC30A  1  0.316269044940  0.132309697301
CC3062  HSIO  1  0.189271432669  0.089736802707
CC3062  HSIA  1  0.286869387241  0.062058748940
CC3062   HAL  1  0.286869387241  0.062058748940
CC3062    AL  1  0.365268474438  0.337324864189
CC3062    SI  1  0.365268474438  0.324091246411
CC3062  SIH3  1  0.365268474438  0.324091246411
CC3062  OSIH  1  0.326959829558  0.163176000000
CC3062  OSIE  1  0.326959829558  0.163176000000
CC3062  OSIA  1  0.326959829558  0.163176000000
CC3062   OAL  1  0.326959829558  0.163176000000
CC3062    HT  1  0.189271432669  0.089736802707
CC3062    OT  1  0.326799467788  0.163176000000
CC3062   DUM  1  0.169270756447  0.000000000000
CC3062    CM  1  0.356359487256  0.138767581228
CC3062   CPA  1  0.329632525712  0.125520000000
CC3062   CPB  1  0.329632525712  0.125520000000
CC3062   CPM  1  0.329632525712  0.125520000000
CC3062   CST  1  0.308518226092  0.100764063435
CC3062  CT1X  1  0.338541512893  0.041840000000
CC3062  CT2X  1  0.338541512893  0.041840000000
CC3062  CT3X  1  0.338541512893  0.041840000000
CC3062    HB  1  0.286869387241  0.062058748940
CC3062   NPH  1  0.334087019303  0.187114168357
CC3062    OM  1  0.320723538531  0.144938011577
CC3062   OST  1  0.320010819556  0.169954883425
CC3062   POT  1  0.326403017859  0.123410269913
CC3062   CAL  1  0.291056611216  0.144938011577
CC3062    MG  1  0.274842254546  0.051243325419
CC3062   CES  1  0.356359487256  0.182376331798
CC3062    ZN  1  0.266378716724  0.209200000000
CC3062    FE  1  0.227179173126  0.000000000000
CC3062    HE  1  0.301123766731  0.061020452073
CC3062    NE  1  0.305578260322  0.122698965603
CC3062  CLAL  1  0.339272049842  0.072469005789
CC3062    AG  1  0.300901042052  0.893457908130
CC3062    AU  1  0.300722862308  0.962320000000
CC3062    CU  1  0.285800308779  0.908997471504
CC3062    NI  1  0.282949432881  0.994525446633
CC3062    PB  1  0.328073452955  0.716185437439
CC3062    PD  1  0.294842930769  1.037598257516
CC3062    PT  1  0.296001099102  1.168527606863
CC3062   CAP  1  0.346773417049  0.110698234855
CC3062    FA  1  0.320723538531  0.144938011577
CC3062    CN  1  0.325178032121  0.187114168357
CC3062    NC  1  0.334087019303  0.324091246411
CC3062   OCA  1  0.293996576986  0.144938011577
CC3062   COA  1  0.347450500075  0.138767581228
CC3062   CF1  1  0.338541512893  0.102486650838
CC3062   CF2  1  0.351904993665  0.085746484010
CC3062   CF3  1  0.374177461619  0.059170695450
CC3062   HF1  1  0.286869387241  0.070011711020
CC3062   HF2  1  0.285087589805  0.072469005789
CC3062    F1  1  0.314487247504  0.153729976257
CC3062    F2  1  0.314487247504  0.135577095411
CC3062    F3  1  0.311814551349  0.130309939452
CC3062    OX  1  0.320723538531  0.144938011577
CC3062    HX  1  0.189271432669  0.089736802707
CC3062  HPER  1  0.189271432669  0.089736802707
CC3062  OPER  1  0.318427692534  0.188901923946
CC3062   LIT  1  0.284864865125  0.020196198771
CC3062   RUB  1  0.338541512893  0.162045623205
CC3062   BAR  1  0.337650614175  0.162045623205
CC3062   CAD  1  0.290165712498  0.144938011577
CC3062  ON2B  1  0.326959829558  0.163176000000
CC3062    SP  1  0.365268474438  0.280671252536
CC3062   HNP  1  0.290272620344  0.072469005789
CC3062  HNE1  1  0.280633096214  0.073666921749
CC3062  HNE2  1  0.281523994932  0.067464972838
CC3062  CN3D  1  0.338541512893  0.125520000000
CC3062  CNE1  1  0.355468588538  0.109105371453
CC3062  CNE2  1  0.354577689820  0.105847757841
CC3062   CNA  1  0.346773417049  0.110698234855
CC3062  CNA2  1  0.338541512893  0.110698234855
CC3062   CNG  1  0.347450500075  0.138767581228
CC3062  NN1C  1  0.334087019303  0.187114168357
CC3062  NN2C  1  0.334087019303  0.187114168357
CC3062  NN3I  1  0.334087019303  0.187114168357
CC3062   NNG  1  0.334087019303  0.187114168357
CC3062   FNA  1  0.320723538531  0.144938011577
CC3062  ON2M  1  0.316269044940  0.132309697301
CC3062   CN6  1  0.338541512893  0.041840000000
CC3062  CN7E  1  0.338541512893  0.041840000000
CC3062  CT2P  1  0.338541512893  0.041840000000
CC3062  CTD1  1  0.338541512893  0.041840000000
CC3062  CPD1  1  0.338541512893  0.041840000000
CC3062  CC1A  1  0.355468588538  0.109105371453
CC3062  CC1B  1  0.355468588538  0.109105371453
CC3062   CC2  1  0.354577689820  0.105847757841
CC3062   NS1  1  0.334087019303  0.187114168357
CC3062   NS2  1  0.334087019303  0.187114168357
CC3062   NHL  1  0.307360057758  0.187114168357
CC3062  CTO1  1  0.338541512893  0.041840000000
CC3062  CEL3  1  0.355468588538  0.109105371453
CC3062  CTO2  1  0.338541512893  0.041840000000
CC3062  HN3B  1  0.249451641079  0.089736802707
CC3062  CN1A  1  0.347450500075  0.110698234855
CC3062  CN3A  1  0.329632525712  0.177512086349
CC3062  CN3B  1  0.329632525712  0.177512086349
CC3062  CN3C  1  0.329632525712  0.177512086349
CC311     C  1  0.347450500075  0.138767581228
CC311    CA  1  0.346773417049  0.110698234855
CC311    CC  1  0.347450500075  0.110698234855
CC311    CD  1  0.347450500075  0.110698234855
CC311   CE1  1  0.355468588538  0.109105371453
CC311   CE2  1  0.354577689820  0.105847757841
CC311   CP1  1  0.338541512893  0.041840000000
CC311   CP2  1  0.338541512893  0.041840000000
CC311   CP3  1  0.338541512893  0.041840000000
CC311  CPH1  1  0.329632525712  0.093557084179
CC311  CPH2  1  0.329632525712  0.093557084179
CC311    CS  1  0.365268474438  0.138767581228
CC311   CPT  1  0.334977918021  0.131646486622
CC311    CY  1  0.346559601357  0.113045454929
CC311   CAI  1  0.346559601357  0.113045454929
CC311    CT  1  0.338541512893  0.041840000000
CC311   CT1  1  0.338541512893  0.041840000000
CC311   CT2  1  0.338541512893  0.041840000000
CC311  CT2A  1  0.338541512893  0.041840000000
CC311   CT3  1  0.338541512893  0.041840000000
CC311    C3  1  0.371950214824  0.059170695450
CC311     H  1  0.189271432669  0.089736802707
CC311    HA  1  0.286869387241  0.062058748940
CC311   HB1  1  0.286869387241  0.062058748940
CC311   HB2  1  0.288651184677  0.070011711020
CC311   HE1  1  0.280633096214  0.073666921749
CC311   HE2  1  0.281523994932  0.067464972838
CC311    HC  1  0.189271432669  0.089736802707
CC311    HP  1  0.290272620344  0.072469005789
CC311   HR1  1  0.249451641079  0.089736802707
CC311   HR2  1  0.231633666716  0.089736802707
CC311   HR3  1  0.300054688270  0.036952087465
CC311    HS  1  0.209361198763  0.132309697301
CC311   HA1  1  0.288651184677  0.088756043175
CC311   HA2  1  0.288651184677  0.077149148019
CC311   HA3  1  0.288651184677  0.064818249282
CC311     N  1  0.334087019303  0.004184000000
CC311   NC2  1  0.334087019303  0.187114168357
CC311   NH1  1  0.307360057758  0.187114168357
CC311   NH2  1  0.334087019303  0.187114168357
CC311   NH3  1  0.334087019303  0.187114168357
CC311    NP  1  0.334087019303  0.187114168357
CC311   NR1  1  0.334087019303  0.187114168357
CC311   NR2  1  0.334087019303  0.187114168357
CC311   NR3  1  0.334087019303  0.187114168357
CC311    NY  1  0.334087019303  0.187114168357
CC311     O  1  0.293996576986  0.144938011577
CC311    OB  1  0.293996576986  0.144938011577
CC311    OC  1  0.320723538531  0.144938011577
CC311   OH1  1  0.326959829558  0.163176000000
CC311    OS  1  0.326959829558  0.163176000000
CC311     S  1  0.347450500075  0.280671252536
CC311    SM  1  0.345223253279  0.257919081884
CC311    SS  1  0.365268474438  0.286840588481
CC311  HGA1  1  0.288651184677  0.088756043175
CC311  HGA2  1  0.288651184677  0.078275472531
CC311  HGA3  1  0.288651184677  0.064818249282
CC311  HGA4  1  0.280633096214  0.073666921749
CC311  HGA5  1  0.281523994932  0.067464972838
CC311  HGA6  1  0.286869387241  0.070011711020
CC311  HGA7  1  0.285087589805  0.072469005789
CC311 HGAAM0  1  0.283305792369  0.070011711020
CC311 HGAAM1  1  0.283305792369  0.070011711020
CC311 HGAAM2  1  0.281523994932  0.083680000000
CC311  HGP1  1  0.189271432669  0.089736802707
CC311  HGP2  1  0.189271432669  0.089736802707
CC311  HGP3  1  0.209361198763  0.132309697301
CC311  HGP4  1  0.189271432669  0.089736802707
CC311  HGP5  1  0.231633666716  0.089736802707
CC311 HGPAM1  1  0.247224394284  0.039692909190
CC311 HGPAM2  1  0.247224394284  0.041840000000
CC311 HGPAM3  1  0.246778944925  0.045833423612
CC311 HGR51  1  0.290272620344  0.072469005789
CC311 HGR52  1  0.249451641079  0.089736802707
CC311 HGR53  1  0.231633666716  0.089736802707
CC311 HGR61  1  0.290272620344  0.072469005789
CC311 HGR62  1  0.267269615442  0.089736802707
CC311 HGR63  1  0.249451641079  0.089736802707
CC311 HGR71  1  0.290272620344  0.072469005789
CC311 HGTIP3  1  0.189271432669  0.089736802707
CC311 CG1T1  1  0.333196120584  0.170981810495
CC311 CG1T2  1  0.346782326036  0.134409982486
CC311 CG1N1  1  0.335868816739  0.177512086349
CC311 CG2D1  1  0.355468588538  0.109105371453
CC311 CG2D2  1  0.354577689820  0.105847757841
CC311 CG2D1O  1  0.355468588538  0.109105371453
CC311 CG2D2O  1  0.355468588538  0.109105371453
CC311 CG2DC1  1  0.355468588538  0.109105371453
CC311 CG2DC2  1  0.355468588538  0.109105371453
CC311 CG2DC3  1  0.354577689820  0.105847757841
CC311 CG2N1  1  0.347450500075  0.138767581228
CC311 CG2N2  1  0.347450500075  0.138767581228
CC311 CG2O1  1  0.347450500075  0.138767581228
CC311 CG2O2  1  0.320723538531  0.130979917850
CC311 CG2O3  1  0.347450500075  0.110698234855
CC311 CG2O4  1  0.329632525712  0.102486650838
CC311 CG2O5  1  0.347450500075  0.125520000000
CC311 CG2O6  1  0.347450500075  0.110698234855
CC311 CG2O7  1  0.308518226092  0.100764063435
CC311 CG2R51  1  0.356359487256  0.093557084179
CC311 CG2R52  1  0.365268474438  0.059170695450
CC311 CG2R53  1  0.365268474438  0.059170695450
CC311 CG2R57  1  0.356359487256  0.093557084179
CC311 CG25C1  1  0.355468588538  0.109105371453
CC311 CG25C2  1  0.355468588538  0.109105371453
CC311 CG251O  1  0.355468588538  0.109105371453
CC311 CG252O  1  0.355468588538  0.109105371453
CC311 CG2R61  1  0.346773417049  0.110698234855
CC311 CG2R62  1  0.338541512893  0.125520000000
CC311 CG2R63  1  0.338541512893  0.132309697301
CC311 CG2R64  1  0.356359487256  0.083680000000
CC311 CG2R66  1  0.338541512893  0.110698234855
CC311 CG2R67  1  0.346773417049  0.110698234855
CC311 CG2RC0  1  0.334977918021  0.131646486622
CC311 CG2R71  1  0.346987232741  0.108300154755
CC311 CG2RC7  1  0.334977918021  0.131646486622
CC311 CG301  1  0.338541512893  0.041840000000
CC311 CG302  1  0.374177461619  0.059170695450
CC311 CG311  1  0.338541512893  0.041840000000
CC311 CG312  1  0.351904993665  0.085746484010
CC311 CG314  1  0.338541512893  0.041840000000
CC311 CG321  1  0.338541512893  0.041840000000
CC311 CG322  1  0.338541512893  0.102486650838
CC311 CG323  1  0.365268474438  0.138767581228
CC311 CG324  1  0.338541512893  0.041840000000
CC311 CG331  1  0.338541512893  0.041840000000
CC311 CG334  1  0.338541512893  0.041840000000
CC311 CG3C50  1  0.338541512893  0.041840000000
CC311 CG3C51  1  0.338541512893  0.041840000000
CC311 CG3C52  1  0.338541512893  0.041840000000
CC311 CG3C53  1  0.338541512893  0.041840000000
CC311 CG3C54  1  0.338541512893  0.041840000000
CC311 CG3C31  1  0.338541512893  0.041840000000
CC311 CG3C41  1  0.338541512893  0.041840000000
CC311 CG3RC1  1  0.338541512893  0.041840000000
CC311 CG3AM0  1  0.344777803920  0.110698234855
CC311 CG3AM1  1  0.345668702638  0.116852760686
CC311 CG3AM2  1  0.346559601357  0.118341390899
CC311 NG1T1  1  0.328741626994  0.177512086349
CC311 NG2D1  1  0.334087019303  0.187114168357
CC311 NG2S0  1  0.334087019303  0.004184000000
CC311 NG2S1  1  0.307360057758  0.187114168357
CC311 NG2S2  1  0.334087019303  0.187114168357
CC311 NG2S3  1  0.334087019303  0.187114168357
CC311 NG2O1  1  0.334087019303  0.187114168357
CC311 NG2P1  1  0.334087019303  0.187114168357
CC311 NG2R43  1  0.334087019303  0.187114168357
CC311 NG2R50  1  0.334087019303  0.187114168357
CC311 NG2R51  1  0.334087019303  0.187114168357
CC311 NG2R52  1  0.334087019303  0.187114168357
CC311 NG2R53  1  0.334087019303  0.187114168357
CC311 NG2R57  1  0.334087019303  0.187114168357
CC311 NG2R60  1  0.337650614175  0.102486650838
CC311 NG2R61  1  0.334087019303  0.187114168357
CC311 NG2R62  1  0.352795892384  0.093557084179
CC311 NG2R67  1  0.334087019303  0.187114168357
CC311 NG2RC0  1  0.334087019303  0.187114168357
CC311 NG301  1  0.347450500075  0.078275472531
CC311 NG311  1  0.347450500075  0.088756043175
CC311 NG321  1  0.346559601357  0.102486650838
CC311 NG331  1  0.345668702638  0.110698234855
CC311 NG3C51  1  0.334087019303  0.187114168357
CC311 NG3N1  1  0.351904993665  0.102486650838
CC311 NG3P0  1  0.334087019303  0.187114168357
CC311 NG3P1  1  0.334087019303  0.187114168357
CC311 NG3P2  1  0.334087019303  0.187114168357
CC311 NG3P3  1  0.334087019303  0.187114168357
CC311 OG2D1  1  0.293996576986  0.144938011577
CC311 OG2D2  1  0.320723538531  0.144938011577
CC311 OG2D3  1  0.293996576986  0.144938011577
CC311 OG2D4  1  0.320723538531  0.144938011577
CC311 OG2D5  1  0.320010819556  0.169954883425
CC311 OG2N1  1  0.320723538531  0.144938011577
CC311 OG2P1  1  0.320723538531  0.144938011577
CC311 OG2R50  1  0.320723538531  0.144938011577
CC311 OG3R60  1  0.316269044940  0.132309697301
CC311 OG301  1  0.316269044940  0.132309697301
CC311 OG302  1  0.316269044940  0.132309697301
CC311 OG303  1  0.316269044940  0.132309697301
CC311 OG304  1  0.316269044940  0.132309697301
CC311 OG311  1  0.326514380198  0.183381431383
CC311 OG312  1  0.325178032121  0.144938011577
CC311 OG3C31  1  0.316269044940  0.132309697301
CC311 OG3C51  1  0.316269044940  0.132309697301
CC311 OG3C61  1  0.316269044940  0.132309697301
CC311 OGTIP3  1  0.326799467788  0.163176000000
CC311 SG2D1  1  0.351904993665  0.314496560236
CC311 SG2R50  1  0.347450500075  0.280671252536
CC311 SG311  1  0.347450500075  0.280671252536
CC311 SG301  1  0.345223253279  0.257919081884
CC311 SG302  1  0.365268474438  0.286840588481
CC311 SG3O1  1  0.356359487256  0.286840588481
CC311 SG3O2  1  0.347450500075  0.247528778125
CC311 SG3O3  1  0.347450500075  0.247528778125
CC311  FGA1  1  0.314487247504  0.153729976257
CC311  FGA2  1  0.314487247504  0.135577095411
CC311  FGA3  1  0.311814551349  0.130309939452
CC311  FGP1  1  0.311814551349  0.130309939452
CC311  FGR1  1  0.320723538531  0.144938011577
CC311 CLGA1  1  0.339432411611  0.245040988571
CC311 CLGA3  1  0.339432411611  0.232955260941
CC311 BRGA1  1  0.344777803920  0.289876023155
CC311 BRGA2  1  0.351904993665  0.304599797767
CC311 BRGA3  1  0.347450500075  0.307459952514
CC311   SOD  1  0.294954293108  0.090610410351
CC311   CLA  1  0.371504765465  0.162045623205
CC311   PG0  1  0.360813980847  0.320014464673
CC311   PG1  1  0.360813980847  0.320014464673
CC311   PG2  1  0.360813980847  0.320014464673
CC311  ALG1  1  0.347450500075  0.337324864189
CC311   LPH  1  0.169270756447  0.000000000000
CC311 CLGR1  1  0.334977918021  0.200657590935
CC311 BRGR1  1  0.345668702638  0.236682781799
CC311  IGR1  1  0.368832069310  0.301712530731
CC311 SG2P1  1  0.355798221064  0.332305491450
CC311 OG2S1  1  0.318906105146  0.157831660601
CC311 SG2P2  1  0.352314807076  0.329421919951
CC311 SEGD1  1  0.363041227642  0.330244580395
CC311 BG201  1  0.396449929572  0.081561175077
CC311 CC301  1  0.338541512893  0.041840000000
CC311 CC3062  1  0.338541512893  0.041840000000
CC311 CC311  1  0.338541512893  0.041840000000
CC311 CC3161  1  0.338541512893  0.041840000000
CC311 CC3162  1  0.338541512893  0.041840000000
CC311 CC3163  1  0.338541512893  0.041840000000
CC311 CC321  1  0.338541512893  0.041840000000
CC311 CC3261  1  0.338541512893  0.041840000000
CC311 CC3263  1  0.338541512893  0.041840000000
CC311 CC331  1  0.338541512893  0.041840000000
CC311 CC2O1  1  0.347450500075  0.138767581228
CC311 CC2O2  1  0.347450500075  0.110698234855
CC311 CC2O3  1  0.347450500075  0.125520000000
CC311 CC2O4  1  0.329632525712  0.102486650838
CC311 CC2O5  1  0.320723538531  0.130979917850
CC311 OC2D1  1  0.293996576986  0.144938011577
CC311 OC2D2  1  0.320723538531  0.144938011577
CC311 OC2D3  1  0.293996576986  0.144938011577
CC311 OC2D4  1  0.293996576986  0.144938011577
CC311 OC3C61  1  0.316269044940  0.132309697301
CC311 OC311  1  0.326514380198  0.183381431383
CC311 NC2D1  1  0.307360057758  0.187114168357
CC311  HCP1  1  0.189271432669  0.089736802707
CC311  HCA1  1  0.288651184677  0.088756043175
CC311  HCA2  1  0.288651184677  0.078275472531
CC311  HCA3  1  0.288651184677  0.064818249282
CC311 CC312  1  0.338541512893  0.041840000000
CC311 CC322  1  0.338541512893  0.041840000000
CC311  HCR1  1  0.240542653898  0.089736802707
CC311 HCA3M  1  0.288651184677  0.064818249282
CC311 CC321C  1  0.338541512893  0.041840000000
CC311 CC321D  1  0.338541512893  0.041840000000
CC311 CC311C  1  0.338541512893  0.041840000000
CC311 CC311D  1  0.338541512893  0.041840000000
CC311 OC301  1  0.316269044940  0.132309697301
CC311 OC302  1  0.316269044940  0.132309697301
CC311 HCP1M  1  0.189271432669  0.089736802707
CC311 OC311M  1  0.326514380198  0.183381431383
CC311 OC3C5M  1  0.316269044940  0.132309697301
CC311 CC322C  1  0.338541512893  0.041840000000
CC311 HCA2C2  1  0.285087589805  0.078275472531
CC311 CC312C  1  0.338541512893  0.041840000000
CC311 HCA1C2  1  0.288651184677  0.088756043175
CC311 OC3C51  1  0.316269044940  0.132309697301
CC311 CC3152  1  0.338541512893  0.041840000000
CC311 CC3051  1  0.338541512893  0.041840000000
CC311 CC3251  1  0.338541512893  0.041840000000
CC311 CC3151  1  0.338541512893  0.041840000000
CC311 CC3153  1  0.338541512893  0.041840000000
CC311 OC2DP  1  0.320723538531  0.144938011577
CC311 OC312  1  0.326959829558  0.163176000000
CC311 OC30P  1  0.326959829558  0.163176000000
CC311    PC  1  0.360813980847  0.320014464673
CC311    SC  1  0.356359487256  0.286840588481
CC311 CC312D  1  0.338541512893  0.041840000000
CC311 OC303  1  0.316269044940  0.132309697301
CC311 NC311  1  0.347450500075  0.088756043175
CC311   HN1  1  0.189271432669  0.089736802707
CC311   HN2  1  0.189271432669  0.089736802707
CC311   HN3  1  0.267269615442  0.089736802707
CC311   HN4  1  0.189271432669  0.089736802707
CC311   HN5  1  0.189271432669  0.089736802707
CC311   HN6  1  0.286869387241  0.062058748940
CC311   HN7  1  0.286869387241  0.062058748940
CC311   HN8  1  0.288651184677  0.070011711020
CC311   HN9  1  0.288651184677  0.064818249282
CC311   NN1  1  0.334087019303  0.187114168357
CC311   NN2  1  0.334087019303  0.187114168357
CC311  NN2B  1  0.334087019303  0.187114168357
CC311  NN2G  1  0.334087019303  0.187114168357
CC311  NN2U  1  0.334087019303  0.187114168357
CC311   NN3  1  0.334087019303  0.187114168357
CC311  NN3A  1  0.334087019303  0.187114168357
CC311  NN3G  1  0.334087019303  0.187114168357
CC311   NN4  1  0.334087019303  0.187114168357
CC311   NN6  1  0.334087019303  0.187114168357
CC311   ON1  1  0.320723538531  0.144938011577
CC311  ON1C  1  0.320723538531  0.144938011577
CC311   ON2  1  0.326959829558  0.163176000000
CC311   ON3  1  0.320723538531  0.144938011577
CC311   ON4  1  0.326959829558  0.163176000000
CC311   ON5  1  0.326959829558  0.163176000000
CC311   ON6  1  0.326959829558  0.163176000000
CC311  ON6B  1  0.326959829558  0.163176000000
CC311   CN1  1  0.338541512893  0.132309697301
CC311  CN1T  1  0.338541512893  0.132309697301
CC311   CN2  1  0.338541512893  0.132309697301
CC311   CN3  1  0.338541512893  0.125520000000
CC311  CN3T  1  0.338541512893  0.125520000000
CC311   CN4  1  0.338541512893  0.114583559030
CC311   CN5  1  0.338541512893  0.114583559030
CC311  CN5G  1  0.338541512893  0.114583559030
CC311   CN7  1  0.338541512893  0.041840000000
CC311  CN7B  1  0.338541512893  0.041840000000
CC311   CN8  1  0.338541512893  0.041840000000
CC311  CN8B  1  0.338541512893  0.041840000000
CC311   CN9  1  0.338541512893  0.041840000000
CC311     P  1  0.360813980847  0.320014464673
CC311    P2  1  0.360813980847  0.320014464673
CC311    P3  1  0.360813980847  0.320014464673
CC311    P4  1  0.360813980847  0.320014464673
CC311   HOL  1  0.189271432669  0.089736802707
CC311  HAL1  1  0.286869387241  0.062058748940
CC311  HAL2  1  0.288651184677  0.070011711020
CC311  HAL3  1  0.288651184677  0.064818249282
CC311   HBL  1  0.286869387241  0.062058748940
CC311   HCL  1  0.189271432669  0.089736802707
CC311    HL  1  0.231633666716  0.089736802707
CC311  HEL1  1  0.280633096214  0.073666921749
CC311  HEL2  1  0.281523994932  0.067464972838
CC311    CL  1  0.347450500075  0.110698234855
CC311   CCL  1  0.347450500075  0.110698234855
CC311  CTL1  1  0.338541512893  0.041840000000
CC311  CTL2  1  0.338541512893  0.041840000000
CC311  CTL3  1  0.338541512893  0.041840000000
CC311  CTL5  1  0.338541512893  0.041840000000
CC311  CEL1  1  0.355468588538  0.109105371453
CC311  CEL2  1  0.354577689820  0.105847757841
CC311  CRL1  1  0.338541512893  0.041840000000
CC311  CRL2  1  0.338541512893  0.041840000000
CC311   OBL  1  0.293996576986  0.144938011577
CC311   OCL  1  0.320723538531  0.144938011577
CC311   O2L  1  0.320723538531  0.144938011577
CC311   OHL  1  0.326959829558  0.163176000000
CC311   OSL  1  0.316269044940  0.132309697301
CC311  OSLP  1  0.316269044940  0.132309697301
CC311  NH3L  1  0.334087019303  0.187114168357
CC311   NTL  1  0.334087019303  0.187114168357
CC311    SL  1  0.356359487256  0.286840588481
CC311    PL  1  0.360813980847  0.320014464673
CC311 HCA1A  1  0.288651184677  0.088756043175
CC311 HCA2A  1  0.288651184677  0.078275472531
CC311 HCA3A  1  0.288651184677  0.064818249282
CC311 CC30A  1  0.338541512893  0.041840000000
CC311 CC31A  1  0.338541512893  0.041840000000
CC311 CC32A  1  0.338541512893  0.041840000000
CC311 CC33A  1  0.338541512893  0.041840000000
CC311 CC326A  1  0.338541512893  0.041840000000
CC311 HCA25A  1  0.285087589805  0.078275472531
CC311 CC325A  1  0.338541512893  0.041840000000
CC311 CC325B  1  0.338541512893  0.041840000000
CC311 OC305A  1  0.316269044940  0.132309697301
CC311 OC30A  1  0.316269044940  0.132309697301
CC311  HSIO  1  0.189271432669  0.089736802707
CC311  HSIA  1  0.286869387241  0.062058748940
CC311   HAL  1  0.286869387241  0.062058748940
CC311    AL  1  0.365268474438  0.337324864189
CC311    SI  1  0.365268474438  0.324091246411
CC311  SIH3  1  0.365268474438  0.324091246411
CC311  OSIH  1  0.326959829558  0.163176000000
CC311  OSIE  1  0.326959829558  0.163176000000
CC311  OSIA  1  0.326959829558  0.163176000000
CC311   OAL  1  0.326959829558  0.163176000000
CC311    HT  1  0.189271432669  0.089736802707
CC311    OT  1  0.326799467788  0.163176000000
CC311   DUM  1  0.169270756447  0.000000000000
CC311    CM  1  0.356359487256  0.138767581228
CC311   CPA  1  0.329632525712  0.125520000000
CC311   CPB  1  0.329632525712  0.125520000000
CC311   CPM  1  0.329632525712  0.125520000000
CC311   CST  1  0.308518226092  0.100764063435
CC311  CT1X  1  0.338541512893  0.041840000000
CC311  CT2X  1  0.338541512893  0.041840000000
CC311  CT3X  1  0.338541512893  0.041840000000
CC311    HB  1  0.286869387241  0.062058748940
CC311   NPH  1  0.334087019303  0.187114168357
CC311    OM  1  0.320723538531  0.144938011577
CC311   OST  1  0.320010819556  0.169954883425
CC311   POT  1  0.326403017859  0.123410269913
CC311   CAL  1  0.291056611216  0.144938011577
CC311    MG  1  0.274842254546  0.051243325419
CC311   CES  1  0.356359487256  0.182376331798
CC311    ZN  1  0.266378716724  0.209200000000
CC311    FE  1  0.227179173126  0.000000000000
CC311    HE  1  0.301123766731  0.061020452073
CC311    NE  1  0.305578260322  0.122698965603
CC311  CLAL  1  0.339272049842  0.072469005789
CC311    AG  1  0.300901042052  0.893457908130
CC311    AU  1  0.300722862308  0.962320000000
CC311    CU  1  0.285800308779  0.908997471504
CC311    NI  1  0.282949432881  0.994525446633
CC311    PB  1  0.328073452955  0.716185437439
CC311    PD  1  0.294842930769  1.037598257516
CC311    PT  1  0.296001099102  1.168527606863
CC311   CAP  1  0.346773417049  0.110698234855
CC311    FA  1  0.320723538531  0.144938011577
CC311    CN  1  0.325178032121  0.187114168357
CC311    NC  1  0.334087019303  0.324091246411
CC311   OCA  1  0.293996576986  0.144938011577
CC311   COA  1  0.347450500075  0.138767581228
CC311   CF1  1  0.338541512893  0.102486650838
CC311   CF2  1  0.351904993665  0.085746484010
CC311   CF3  1  0.374177461619  0.059170695450
CC311   HF1  1  0.286869387241  0.070011711020
CC311   HF2  1  0.285087589805  0.072469005789
CC311    F1  1  0.314487247504  0.153729976257
CC311    F2  1  0.314487247504  0.135577095411
CC311    F3  1  0.311814551349  0.130309939452
CC311    OX  1  0.320723538531  0.144938011577
CC311    HX  1  0.189271432669  0.089736802707
CC311  HPER  1  0.189271432669  0.089736802707
CC311  OPER  1  0.318427692534  0.188901923946
CC311   LIT  1  0.284864865125  0.020196198771
CC311   RUB  1  0.338541512893  0.162045623205
CC311   BAR  1  0.337650614175  0.162045623205
CC311   CAD  1  0.290165712498  0.144938011577
CC311  ON2B  1  0.326959829558  0.163176000000
CC311    SP  1  0.365268474438  0.280671252536
CC311   HNP  1  0.290272620344  0.072469005789
CC311  HNE1  1  0.280633096214  0.073666921749
CC311  HNE2  1  0.281523994932  0.067464972838
CC311  CN3D  1  0.338541512893  0.125520000000
CC311  CNE1  1  0.355468588538  0.109105371453
CC311  CNE2  1  0.354577689820  0.105847757841
CC311   CNA  1  0.346773417049  0.110698234855
CC311  CNA2  1  0.338541512893  0.110698234855
CC311   CNG  1  0.347450500075  0.138767581228
CC311  NN1C  1  0.334087019303  0.187114168357
CC311  NN2C  1  0.334087019303  0.187114168357
CC311  NN3I  1  0.334087019303  0.187114168357
CC311   NNG  1  0.334087019303  0.187114168357
CC311   FNA  1  0.320723538531  0.144938011577
CC311  ON2M  1  0.316269044940  0.132309697301
CC311   CN6  1  0.338541512893  0.041840000000
CC311  CN7E  1  0.338541512893  0.041840000000
CC311  CT2P  1  0.338541512893  0.041840000000
CC311  CTD1  1  0.338541512893  0.041840000000
CC311  CPD1  1  0.338541512893  0.041840000000
CC311  CC1A  1  0.355468588538  0.109105371453
CC311  CC1B  1  0.355468588538  0.109105371453
CC311   CC2  1  0.354577689820  0.105847757841
CC311   NS1  1  0.334087019303  0.187114168357
CC311   NS2  1  0.334087019303  0.187114168357
CC311   NHL  1  0.307360057758  0.187114168357
CC311  CTO1  1  0.338541512893  0.041840000000
CC311  CEL3  1  0.355468588538  0.109105371453
CC311  CTO2  1  0.338541512893  0.041840000000
CC311  HN3B  1  0.249451641079  0.089736802707
CC311  CN1A  1  0.347450500075  0.110698234855
CC311  CN3A  1  0.329632525712  0.177512086349
CC311  CN3B  1  0.329632525712  0.177512086349
CC311  CN3C  1  0.329632525712  0.177512086349
CC3161     C  1  0.347450500075  0.138767581228
CC3161    CA  1  0.346773417049  0.110698234855
CC3161    CC  1  0.347450500075  0.110698234855
CC3161    CD  1  0.347450500075  0.110698234855
CC3161   CE1  1  0.355468588538  0.109105371453
CC3161   CE2  1  0.354577689820  0.105847757841
CC3161   CP1  1  0.338541512893  0.041840000000
CC3161   CP2  1  0.338541512893  0.041840000000
CC3161   CP3  1  0.338541512893  0.041840000000
CC3161  CPH1  1  0.329632525712  0.093557084179
CC3161  CPH2  1  0.329632525712  0.093557084179
CC3161    CS  1  0.365268474438  0.138767581228
CC3161   CPT  1  0.334977918021  0.131646486622
CC3161    CY  1  0.346559601357  0.113045454929
CC3161   CAI  1  0.346559601357  0.113045454929
CC3161    CT  1  0.338541512893  0.041840000000
CC3161   CT1  1  0.338541512893  0.041840000000
CC3161   CT2  1  0.338541512893  0.041840000000
CC3161  CT2A  1  0.338541512893  0.041840000000
CC3161   CT3  1  0.338541512893  0.041840000000
CC3161    C3  1  0.371950214824  0.059170695450
CC3161     H  1  0.189271432669  0.089736802707
CC3161    HA  1  0.286869387241  0.062058748940
CC3161   HB1  1  0.286869387241  0.062058748940
CC3161   HB2  1  0.288651184677  0.070011711020
CC3161   HE1  1  0.280633096214  0.073666921749
CC3161   HE2  1  0.281523994932  0.067464972838
CC3161    HC  1  0.189271432669  0.089736802707
CC3161    HP  1  0.290272620344  0.072469005789
CC3161   HR1  1  0.249451641079  0.089736802707
CC3161   HR2  1  0.231633666716  0.089736802707
CC3161   HR3  1  0.300054688270  0.036952087465
CC3161    HS  1  0.209361198763  0.132309697301
CC3161   HA1  1  0.288651184677  0.088756043175
CC3161   HA2  1  0.288651184677  0.077149148019
CC3161   HA3  1  0.288651184677  0.064818249282
CC3161     N  1  0.334087019303  0.004184000000
CC3161   NC2  1  0.334087019303  0.187114168357
CC3161   NH1  1  0.307360057758  0.187114168357
CC3161   NH2  1  0.334087019303  0.187114168357
CC3161   NH3  1  0.334087019303  0.187114168357
CC3161    NP  1  0.334087019303  0.187114168357
CC3161   NR1  1  0.334087019303  0.187114168357
CC3161   NR2  1  0.334087019303  0.187114168357
CC3161   NR3  1  0.334087019303  0.187114168357
CC3161    NY  1  0.334087019303  0.187114168357
CC3161     O  1  0.293996576986  0.144938011577
CC3161    OB  1  0.293996576986  0.144938011577
CC3161    OC  1  0.320723538531  0.144938011577
CC3161   OH1  1  0.326959829558  0.163176000000
CC3161    OS  1  0.326959829558  0.163176000000
CC3161     S  1  0.347450500075  0.280671252536
CC3161    SM  1  0.345223253279  0.257919081884
CC3161    SS  1  0.365268474438  0.286840588481
CC3161  HGA1  1  0.288651184677  0.088756043175
CC3161  HGA2  1  0.288651184677  0.078275472531
CC3161  HGA3  1  0.288651184677  0.064818249282
CC3161  HGA4  1  0.280633096214  0.073666921749
CC3161  HGA5  1  0.281523994932  0.067464972838
CC3161  HGA6  1  0.286869387241  0.070011711020
CC3161  HGA7  1  0.285087589805  0.072469005789
CC3161 HGAAM0  1  0.283305792369  0.070011711020
CC3161 HGAAM1  1  0.283305792369  0.070011711020
CC3161 HGAAM2  1  0.281523994932  0.083680000000
CC3161  HGP1  1  0.189271432669  0.089736802707
CC3161  HGP2  1  0.189271432669  0.089736802707
CC3161  HGP3  1  0.209361198763  0.132309697301
CC3161  HGP4  1  0.189271432669  0.089736802707
CC3161  HGP5  1  0.231633666716  0.089736802707
CC3161 HGPAM1  1  0.247224394284  0.039692909190
CC3161 HGPAM2  1  0.247224394284  0.041840000000
CC3161 HGPAM3  1  0.246778944925  0.045833423612
CC3161 HGR51  1  0.290272620344  0.072469005789
CC3161 HGR52  1  0.249451641079  0.089736802707
CC3161 HGR53  1  0.231633666716  0.089736802707
CC3161 HGR61  1  0.290272620344  0.072469005789
CC3161 HGR62  1  0.267269615442  0.089736802707
CC3161 HGR63  1  0.249451641079  0.089736802707
CC3161 HGR71  1  0.290272620344  0.072469005789
CC3161 HGTIP3  1  0.189271432669  0.089736802707
CC3161 CG1T1  1  0.333196120584  0.170981810495
CC3161 CG1T2  1  0.346782326036  0.134409982486
CC3161 CG1N1  1  0.335868816739  0.177512086349
CC3161 CG2D1  1  0.355468588538  0.109105371453
CC3161 CG2D2  1  0.354577689820  0.105847757841
CC3161 CG2D1O  1  0.355468588538  0.109105371453
CC3161 CG2D2O  1  0.355468588538  0.109105371453
CC3161 CG2DC1  1  0.355468588538  0.109105371453
CC3161 CG2DC2  1  0.355468588538  0.109105371453
CC3161 CG2DC3  1  0.354577689820  0.105847757841
CC3161 CG2N1  1  0.347450500075  0.138767581228
CC3161 CG2N2  1  0.347450500075  0.138767581228
CC3161 CG2O1  1  0.347450500075  0.138767581228
CC3161 CG2O2  1  0.320723538531  0.130979917850
CC3161 CG2O3  1  0.347450500075  0.110698234855
CC3161 CG2O4  1  0.329632525712  0.102486650838
CC3161 CG2O5  1  0.347450500075  0.125520000000
CC3161 CG2O6  1  0.347450500075  0.110698234855
CC3161 CG2O7  1  0.308518226092  0.100764063435
CC3161 CG2R51  1  0.356359487256  0.093557084179
CC3161 CG2R52  1  0.365268474438  0.059170695450
CC3161 CG2R53  1  0.365268474438  0.059170695450
CC3161 CG2R57  1  0.356359487256  0.093557084179
CC3161 CG25C1  1  0.355468588538  0.109105371453
CC3161 CG25C2  1  0.355468588538  0.109105371453
CC3161 CG251O  1  0.355468588538  0.109105371453
CC3161 CG252O  1  0.355468588538  0.109105371453
CC3161 CG2R61  1  0.346773417049  0.110698234855
CC3161 CG2R62  1  0.338541512893  0.125520000000
CC3161 CG2R63  1  0.338541512893  0.132309697301
CC3161 CG2R64  1  0.356359487256  0.083680000000
CC3161 CG2R66  1  0.338541512893  0.110698234855
CC3161 CG2R67  1  0.346773417049  0.110698234855
CC3161 CG2RC0  1  0.334977918021  0.131646486622
CC3161 CG2R71  1  0.346987232741  0.108300154755
CC3161 CG2RC7  1  0.334977918021  0.131646486622
CC3161 CG301  1  0.338541512893  0.041840000000
CC3161 CG302  1  0.374177461619  0.059170695450
CC3161 CG311  1  0.338541512893  0.041840000000
CC3161 CG312  1  0.351904993665  0.085746484010
CC3161 CG314  1  0.338541512893  0.041840000000
CC3161 CG321  1  0.338541512893  0.041840000000
CC3161 CG322  1  0.338541512893  0.102486650838
CC3161 CG323  1  0.365268474438  0.138767581228
CC3161 CG324  1  0.338541512893  0.041840000000
CC3161 CG331  1  0.338541512893  0.041840000000
CC3161 CG334  1  0.338541512893  0.041840000000
CC3161 CG3C50  1  0.338541512893  0.041840000000
CC3161 CG3C51  1  0.338541512893  0.041840000000
CC3161 CG3C52  1  0.338541512893  0.041840000000
CC3161 CG3C53  1  0.338541512893  0.041840000000
CC3161 CG3C54  1  0.338541512893  0.041840000000
CC3161 CG3C31  1  0.338541512893  0.041840000000
CC3161 CG3C41  1  0.338541512893  0.041840000000
CC3161 CG3RC1  1  0.338541512893  0.041840000000
CC3161 CG3AM0  1  0.344777803920  0.110698234855
CC3161 CG3AM1  1  0.345668702638  0.116852760686
CC3161 CG3AM2  1  0.346559601357  0.118341390899
CC3161 NG1T1  1  0.328741626994  0.177512086349
CC3161 NG2D1  1  0.334087019303  0.187114168357
CC3161 NG2S0  1  0.334087019303  0.004184000000
CC3161 NG2S1  1  0.307360057758  0.187114168357
CC3161 NG2S2  1  0.334087019303  0.187114168357
CC3161 NG2S3  1  0.334087019303  0.187114168357
CC3161 NG2O1  1  0.334087019303  0.187114168357
CC3161 NG2P1  1  0.334087019303  0.187114168357
CC3161 NG2R43  1  0.334087019303  0.187114168357
CC3161 NG2R50  1  0.334087019303  0.187114168357
CC3161 NG2R51  1  0.334087019303  0.187114168357
CC3161 NG2R52  1  0.334087019303  0.187114168357
CC3161 NG2R53  1  0.334087019303  0.187114168357
CC3161 NG2R57  1  0.334087019303  0.187114168357
CC3161 NG2R60  1  0.337650614175  0.102486650838
CC3161 NG2R61  1  0.334087019303  0.187114168357
CC3161 NG2R62  1  0.352795892384  0.093557084179
CC3161 NG2R67  1  0.334087019303  0.187114168357
CC3161 NG2RC0  1  0.334087019303  0.187114168357
CC3161 NG301  1  0.347450500075  0.078275472531
CC3161 NG311  1  0.347450500075  0.088756043175
CC3161 NG321  1  0.346559601357  0.102486650838
CC3161 NG331  1  0.345668702638  0.110698234855
CC3161 NG3C51  1  0.334087019303  0.187114168357
CC3161 NG3N1  1  0.351904993665  0.102486650838
CC3161 NG3P0  1  0.334087019303  0.187114168357
CC3161 NG3P1  1  0.334087019303  0.187114168357
CC3161 NG3P2  1  0.334087019303  0.187114168357
CC3161 NG3P3  1  0.334087019303  0.187114168357
CC3161 OG2D1  1  0.293996576986  0.144938011577
CC3161 OG2D2  1  0.320723538531  0.144938011577
CC3161 OG2D3  1  0.293996576986  0.144938011577
CC3161 OG2D4  1  0.320723538531  0.144938011577
CC3161 OG2D5  1  0.320010819556  0.169954883425
CC3161 OG2N1  1  0.320723538531  0.144938011577
CC3161 OG2P1  1  0.320723538531  0.144938011577
CC3161 OG2R50  1  0.320723538531  0.144938011577
CC3161 OG3R60  1  0.316269044940  0.132309697301
CC3161 OG301  1  0.316269044940  0.132309697301
CC3161 OG302  1  0.316269044940  0.132309697301
CC3161 OG303  1  0.316269044940  0.132309697301
CC3161 OG304  1  0.316269044940  0.132309697301
CC3161 OG311  1  0.326514380198  0.183381431383
CC3161 OG312  1  0.325178032121  0.144938011577
CC3161 OG3C31  1  0.316269044940  0.132309697301
CC3161 OG3C51  1  0.316269044940  0.132309697301
CC3161 OG3C61  1  0.316269044940  0.132309697301
CC3161 OGTIP3  1  0.326799467788  0.163176000000
CC3161 SG2D1  1  0.351904993665  0.314496560236
CC3161 SG2R50  1  0.347450500075  0.280671252536
CC3161 SG311  1  0.347450500075  0.280671252536
CC3161 SG301  1  0.345223253279  0.257919081884
CC3161 SG302  1  0.365268474438  0.286840588481
CC3161 SG3O1  1  0.356359487256  0.286840588481
CC3161 SG3O2  1  0.347450500075  0.247528778125
CC3161 SG3O3  1  0.347450500075  0.247528778125
CC3161  FGA1  1  0.314487247504  0.153729976257
CC3161  FGA2  1  0.314487247504  0.135577095411
CC3161  FGA3  1  0.311814551349  0.130309939452
CC3161  FGP1  1  0.311814551349  0.130309939452
CC3161  FGR1  1  0.320723538531  0.144938011577
CC3161 CLGA1  1  0.339432411611  0.245040988571
CC3161 CLGA3  1  0.339432411611  0.232955260941
CC3161 BRGA1  1  0.344777803920  0.289876023155
CC3161 BRGA2  1  0.351904993665  0.304599797767
CC3161 BRGA3  1  0.347450500075  0.307459952514
CC3161   SOD  1  0.294954293108  0.090610410351
CC3161   CLA  1  0.371504765465  0.162045623205
CC3161   PG0  1  0.360813980847  0.320014464673
CC3161   PG1  1  0.360813980847  0.320014464673
CC3161   PG2  1  0.360813980847  0.320014464673
CC3161  ALG1  1  0.347450500075  0.337324864189
CC3161   LPH  1  0.169270756447  0.000000000000
CC3161 CLGR1  1  0.334977918021  0.200657590935
CC3161 BRGR1  1  0.345668702638  0.236682781799
CC3161  IGR1  1  0.368832069310  0.301712530731
CC3161 SG2P1  1  0.355798221064  0.332305491450
CC3161 OG2S1  1  0.318906105146  0.157831660601
CC3161 SG2P2  1  0.352314807076  0.329421919951
CC3161 SEGD1  1  0.363041227642  0.330244580395
CC3161 BG201  1  0.396449929572  0.081561175077
CC3161 CC301  1  0.338541512893  0.041840000000
CC3161 CC3062  1  0.338541512893  0.041840000000
CC3161 CC311  1  0.338541512893  0.041840000000
CC3161 CC3161  1  0.338541512893  0.041840000000
CC3161 CC3162  1  0.338541512893  0.041840000000
CC3161 CC3163  1  0.338541512893  0.041840000000
CC3161 CC321  1  0.338541512893  0.041840000000
CC3161 CC3261  1  0.338541512893  0.041840000000
CC3161 CC3263  1  0.338541512893  0.041840000000
CC3161 CC331  1  0.338541512893  0.041840000000
CC3161 CC2O1  1  0.347450500075  0.138767581228
CC3161 CC2O2  1  0.347450500075  0.110698234855
CC3161 CC2O3  1  0.347450500075  0.125520000000
CC3161 CC2O4  1  0.329632525712  0.102486650838
CC3161 CC2O5  1  0.320723538531  0.130979917850
CC3161 OC2D1  1  0.293996576986  0.144938011577
CC3161 OC2D2  1  0.320723538531  0.144938011577
CC3161 OC2D3  1  0.293996576986  0.144938011577
CC3161 OC2D4  1  0.293996576986  0.144938011577
CC3161 OC3C61  1  0.316269044940  0.132309697301
CC3161 OC311  1  0.326514380198  0.183381431383
CC3161 NC2D1  1  0.307360057758  0.187114168357
CC3161  HCP1  1  0.189271432669  0.089736802707
CC3161  HCA1  1  0.288651184677  0.088756043175
CC3161  HCA2  1  0.288651184677  0.078275472531
CC3161  HCA3  1  0.288651184677  0.064818249282
CC3161 CC312  1  0.338541512893  0.041840000000
CC3161 CC322  1  0.338541512893  0.041840000000
CC3161  HCR1  1  0.240542653898  0.089736802707
CC3161 HCA3M  1  0.288651184677  0.064818249282
CC3161 CC321C  1  0.338541512893  0.041840000000
CC3161 CC321D  1  0.338541512893  0.041840000000
CC3161 CC311C  1  0.338541512893  0.041840000000
CC3161 CC311D  1  0.338541512893  0.041840000000
CC3161 OC301  1  0.316269044940  0.132309697301
CC3161 OC302  1  0.316269044940  0.132309697301
CC3161 HCP1M  1  0.189271432669  0.089736802707
CC3161 OC311M  1  0.326514380198  0.183381431383
CC3161 OC3C5M  1  0.316269044940  0.132309697301
CC3161 CC322C  1  0.338541512893  0.041840000000
CC3161 HCA2C2  1  0.285087589805  0.078275472531
CC3161 CC312C  1  0.338541512893  0.041840000000
CC3161 HCA1C2  1  0.288651184677  0.088756043175
CC3161 OC3C51  1  0.316269044940  0.132309697301
CC3161 CC3152  1  0.338541512893  0.041840000000
CC3161 CC3051  1  0.338541512893  0.041840000000
CC3161 CC3251  1  0.338541512893  0.041840000000
CC3161 CC3151  1  0.338541512893  0.041840000000
CC3161 CC3153  1  0.338541512893  0.041840000000
CC3161 OC2DP  1  0.320723538531  0.144938011577
CC3161 OC312  1  0.326959829558  0.163176000000
CC3161 OC30P  1  0.326959829558  0.163176000000
CC3161    PC  1  0.360813980847  0.320014464673
CC3161    SC  1  0.356359487256  0.286840588481
CC3161 CC312D  1  0.338541512893  0.041840000000
CC3161 OC303  1  0.316269044940  0.132309697301
CC3161 NC311  1  0.347450500075  0.088756043175
CC3161   HN1  1  0.189271432669  0.089736802707
CC3161   HN2  1  0.189271432669  0.089736802707
CC3161   HN3  1  0.267269615442  0.089736802707
CC3161   HN4  1  0.189271432669  0.089736802707
CC3161   HN5  1  0.189271432669  0.089736802707
CC3161   HN6  1  0.286869387241  0.062058748940
CC3161   HN7  1  0.286869387241  0.062058748940
CC3161   HN8  1  0.288651184677  0.070011711020
CC3161   HN9  1  0.288651184677  0.064818249282
CC3161   NN1  1  0.334087019303  0.187114168357
CC3161   NN2  1  0.334087019303  0.187114168357
CC3161  NN2B  1  0.334087019303  0.187114168357
CC3161  NN2G  1  0.334087019303  0.187114168357
CC3161  NN2U  1  0.334087019303  0.187114168357
CC3161   NN3  1  0.334087019303  0.187114168357
CC3161  NN3A  1  0.334087019303  0.187114168357
CC3161  NN3G  1  0.334087019303  0.187114168357
CC3161   NN4  1  0.334087019303  0.187114168357
CC3161   NN6  1  0.334087019303  0.187114168357
CC3161   ON1  1  0.320723538531  0.144938011577
CC3161  ON1C  1  0.320723538531  0.144938011577
CC3161   ON2  1  0.326959829558  0.163176000000
CC3161   ON3  1  0.320723538531  0.144938011577
CC3161   ON4  1  0.326959829558  0.163176000000
CC3161   ON5  1  0.326959829558  0.163176000000
CC3161   ON6  1  0.326959829558  0.163176000000
CC3161  ON6B  1  0.326959829558  0.163176000000
CC3161   CN1  1  0.338541512893  0.132309697301
CC3161  CN1T  1  0.338541512893  0.132309697301
CC3161   CN2  1  0.338541512893  0.132309697301
CC3161   CN3  1  0.338541512893  0.125520000000
CC3161  CN3T  1  0.338541512893  0.125520000000
CC3161   CN4  1  0.338541512893  0.114583559030
CC3161   CN5  1  0.338541512893  0.114583559030
CC3161  CN5G  1  0.338541512893  0.114583559030
CC3161   CN7  1  0.338541512893  0.041840000000
CC3161  CN7B  1  0.338541512893  0.041840000000
CC3161   CN8  1  0.338541512893  0.041840000000
CC3161  CN8B  1  0.338541512893  0.041840000000
CC3161   CN9  1  0.338541512893  0.041840000000
CC3161     P  1  0.360813980847  0.320014464673
CC3161    P2  1  0.360813980847  0.320014464673
CC3161    P3  1  0.360813980847  0.320014464673
CC3161    P4  1  0.360813980847  0.320014464673
CC3161   HOL  1  0.189271432669  0.089736802707
CC3161  HAL1  1  0.286869387241  0.062058748940
CC3161  HAL2  1  0.288651184677  0.070011711020
CC3161  HAL3  1  0.288651184677  0.064818249282
CC3161   HBL  1  0.286869387241  0.062058748940
CC3161   HCL  1  0.189271432669  0.089736802707
CC3161    HL  1  0.231633666716  0.089736802707
CC3161  HEL1  1  0.280633096214  0.073666921749
CC3161  HEL2  1  0.281523994932  0.067464972838
CC3161    CL  1  0.347450500075  0.110698234855
CC3161   CCL  1  0.347450500075  0.110698234855
CC3161  CTL1  1  0.338541512893  0.041840000000
CC3161  CTL2  1  0.338541512893  0.041840000000
CC3161  CTL3  1  0.338541512893  0.041840000000
CC3161  CTL5  1  0.338541512893  0.041840000000
CC3161  CEL1  1  0.355468588538  0.109105371453
CC3161  CEL2  1  0.354577689820  0.105847757841
CC3161  CRL1  1  0.338541512893  0.041840000000
CC3161  CRL2  1  0.338541512893  0.041840000000
CC3161   OBL  1  0.293996576986  0.144938011577
CC3161   OCL  1  0.320723538531  0.144938011577
CC3161   O2L  1  0.320723538531  0.144938011577
CC3161   OHL  1  0.326959829558  0.163176000000
CC3161   OSL  1  0.316269044940  0.132309697301
CC3161  OSLP  1  0.316269044940  0.132309697301
CC3161  NH3L  1  0.334087019303  0.187114168357
CC3161   NTL  1  0.334087019303  0.187114168357
CC3161    SL  1  0.356359487256  0.286840588481
CC3161    PL  1  0.360813980847  0.320014464673
CC3161 HCA1A  1  0.288651184677  0.088756043175
CC3161 HCA2A  1  0.288651184677  0.078275472531
CC3161 HCA3A  1  0.288651184677  0.064818249282
CC3161 CC30A  1  0.338541512893  0.041840000000
CC3161 CC31A  1  0.338541512893  0.041840000000
CC3161 CC32A  1  0.338541512893  0.041840000000
CC3161 CC33A  1  0.338541512893  0.041840000000
CC3161 CC326A  1  0.338541512893  0.041840000000
CC3161 HCA25A  1  0.285087589805  0.078275472531
CC3161 CC325A  1  0.338541512893  0.041840000000
CC3161 CC325B  1  0.338541512893  0.041840000000
CC3161 OC305A  1  0.316269044940  0.132309697301
CC3161 OC30A  1  0.316269044940  0.132309697301
CC3161  HSIO  1  0.189271432669  0.089736802707
CC3161  HSIA  1  0.286869387241  0.062058748940
CC3161   HAL  1  0.286869387241  0.062058748940
CC3161    AL  1  0.365268474438  0.337324864189
CC3161    SI  1  0.365268474438  0.324091246411
CC3161  SIH3  1  0.365268474438  0.324091246411
CC3161  OSIH  1  0.326959829558  0.163176000000
CC3161  OSIE  1  0.326959829558  0.163176000000
CC3161  OSIA  1  0.326959829558  0.163176000000
CC3161   OAL  1  0.326959829558  0.163176000000
CC3161    HT  1  0.189271432669  0.089736802707
CC3161    OT  1  0.326799467788  0.163176000000
CC3161   DUM  1  0.169270756447  0.000000000000
CC3161    CM  1  0.356359487256  0.138767581228
CC3161   CPA  1  0.329632525712  0.125520000000
CC3161   CPB  1  0.329632525712  0.125520000000
CC3161   CPM  1  0.329632525712  0.125520000000
CC3161   CST  1  0.308518226092  0.100764063435
CC3161  CT1X  1  0.338541512893  0.041840000000
CC3161  CT2X  1  0.338541512893  0.041840000000
CC3161  CT3X  1  0.338541512893  0.041840000000
CC3161    HB  1  0.286869387241  0.062058748940
CC3161   NPH  1  0.334087019303  0.187114168357
CC3161    OM  1  0.320723538531  0.144938011577
CC3161   OST  1  0.320010819556  0.169954883425
CC3161   POT  1  0.326403017859  0.123410269913
CC3161   CAL  1  0.291056611216  0.144938011577
CC3161    MG  1  0.274842254546  0.051243325419
CC3161   CES  1  0.356359487256  0.182376331798
CC3161    ZN  1  0.266378716724  0.209200000000
CC3161    FE  1  0.227179173126  0.000000000000
CC3161    HE  1  0.301123766731  0.061020452073
CC3161    NE  1  0.305578260322  0.122698965603
CC3161  CLAL  1  0.339272049842  0.072469005789
CC3161    AG  1  0.300901042052  0.893457908130
CC3161    AU  1  0.300722862308  0.962320000000
CC3161    CU  1  0.285800308779  0.908997471504
CC3161    NI  1  0.282949432881  0.994525446633
CC3161    PB  1  0.328073452955  0.716185437439
CC3161    PD  1  0.294842930769  1.037598257516
CC3161    PT  1  0.296001099102  1.168527606863
CC3161   CAP  1  0.346773417049  0.110698234855
CC3161    FA  1  0.320723538531  0.144938011577
CC3161    CN  1  0.325178032121  0.187114168357
CC3161    NC  1  0.334087019303  0.324091246411
CC3161   OCA  1  0.293996576986  0.144938011577
CC3161   COA  1  0.347450500075  0.138767581228
CC3161   CF1  1  0.338541512893  0.102486650838
CC3161   CF2  1  0.351904993665  0.085746484010
CC3161   CF3  1  0.374177461619  0.059170695450
CC3161   HF1  1  0.286869387241  0.070011711020
CC3161   HF2  1  0.285087589805  0.072469005789
CC3161    F1  1  0.314487247504  0.153729976257
CC3161    F2  1  0.314487247504  0.135577095411
CC3161    F3  1  0.311814551349  0.130309939452
CC3161    OX  1  0.320723538531  0.144938011577
CC3161    HX  1  0.189271432669  0.089736802707
CC3161  HPER  1  0.189271432669  0.089736802707
CC3161  OPER  1  0.318427692534  0.188901923946
CC3161   LIT  1  0.284864865125  0.020196198771
CC3161   RUB  1  0.338541512893  0.162045623205
CC3161   BAR  1  0.337650614175  0.162045623205
CC3161   CAD  1  0.290165712498  0.144938011577
CC3161  ON2B  1  0.326959829558  0.163176000000
CC3161    SP  1  0.365268474438  0.280671252536
CC3161   HNP  1  0.290272620344  0.072469005789
CC3161  HNE1  1  0.280633096214  0.073666921749
CC3161  HNE2  1  0.281523994932  0.067464972838
CC3161  CN3D  1  0.338541512893  0.125520000000
CC3161  CNE1  1  0.355468588538  0.109105371453
CC3161  CNE2  1  0.354577689820  0.105847757841
CC3161   CNA  1  0.346773417049  0.110698234855
CC3161  CNA2  1  0.338541512893  0.110698234855
CC3161   CNG  1  0.347450500075  0.138767581228
CC3161  NN1C  1  0.334087019303  0.187114168357
CC3161  NN2C  1  0.334087019303  0.187114168357
CC3161  NN3I  1  0.334087019303  0.187114168357
CC3161   NNG  1  0.334087019303  0.187114168357
CC3161   FNA  1  0.320723538531  0.144938011577
CC3161  ON2M  1  0.316269044940  0.132309697301
CC3161   CN6  1  0.338541512893  0.041840000000
CC3161  CN7E  1  0.338541512893  0.041840000000
CC3161  CT2P  1  0.338541512893  0.041840000000
CC3161  CTD1  1  0.338541512893  0.041840000000
CC3161  CPD1  1  0.338541512893  0.041840000000
CC3161  CC1A  1  0.355468588538  0.109105371453
CC3161  CC1B  1  0.355468588538  0.109105371453
CC3161   CC2  1  0.354577689820  0.105847757841
CC3161   NS1  1  0.334087019303  0.187114168357
CC3161   NS2  1  0.334087019303  0.187114168357
CC3161   NHL  1  0.307360057758  0.187114168357
CC3161  CTO1  1  0.338541512893  0.041840000000
CC3161  CEL3  1  0.355468588538  0.109105371453
CC3161  CTO2  1  0.338541512893  0.041840000000
CC3161  HN3B  1  0.249451641079  0.089736802707
CC3161  CN1A  1  0.347450500075  0.110698234855
CC3161  CN3A  1  0.329632525712  0.177512086349
CC3161  CN3B  1  0.329632525712  0.177512086349
CC3161  CN3C  1  0.329632525712  0.177512086349
CC3162     C  1  0.347450500075  0.138767581228
CC3162    CA  1  0.346773417049  0.110698234855
CC3162    CC  1  0.347450500075  0.110698234855
CC3162    CD  1  0.347450500075  0.110698234855
CC3162   CE1  1  0.355468588538  0.109105371453
CC3162   CE2  1  0.354577689820  0.105847757841
CC3162   CP1  1  0.338541512893  0.041840000000
CC3162   CP2  1  0.338541512893  0.041840000000
CC3162   CP3  1  0.338541512893  0.041840000000
CC3162  CPH1  1  0.329632525712  0.093557084179
CC3162  CPH2  1  0.329632525712  0.093557084179
CC3162    CS  1  0.365268474438  0.138767581228
CC3162   CPT  1  0.334977918021  0.131646486622
CC3162    CY  1  0.346559601357  0.113045454929
CC3162   CAI  1  0.346559601357  0.113045454929
CC3162    CT  1  0.338541512893  0.041840000000
CC3162   CT1  1  0.338541512893  0.041840000000
CC3162   CT2  1  0.338541512893  0.041840000000
CC3162  CT2A  1  0.338541512893  0.041840000000
CC3162   CT3  1  0.338541512893  0.041840000000
CC3162    C3  1  0.371950214824  0.059170695450
CC3162     H  1  0.189271432669  0.089736802707
CC3162    HA  1  0.286869387241  0.062058748940
CC3162   HB1  1  0.286869387241  0.062058748940
CC3162   HB2  1  0.288651184677  0.070011711020
CC3162   HE1  1  0.280633096214  0.073666921749
CC3162   HE2  1  0.281523994932  0.067464972838
CC3162    HC  1  0.189271432669  0.089736802707
CC3162    HP  1  0.290272620344  0.072469005789
CC3162   HR1  1  0.249451641079  0.089736802707
CC3162   HR2  1  0.231633666716  0.089736802707
CC3162   HR3  1  0.300054688270  0.036952087465
CC3162    HS  1  0.209361198763  0.132309697301
CC3162   HA1  1  0.288651184677  0.088756043175
CC3162   HA2  1  0.288651184677  0.077149148019
CC3162   HA3  1  0.288651184677  0.064818249282
CC3162     N  1  0.334087019303  0.004184000000
CC3162   NC2  1  0.334087019303  0.187114168357
CC3162   NH1  1  0.307360057758  0.187114168357
CC3162   NH2  1  0.334087019303  0.187114168357
CC3162   NH3  1  0.334087019303  0.187114168357
CC3162    NP  1  0.334087019303  0.187114168357
CC3162   NR1  1  0.334087019303  0.187114168357
CC3162   NR2  1  0.334087019303  0.187114168357
CC3162   NR3  1  0.334087019303  0.187114168357
CC3162    NY  1  0.334087019303  0.187114168357
CC3162     O  1  0.293996576986  0.144938011577
CC3162    OB  1  0.293996576986  0.144938011577
CC3162    OC  1  0.320723538531  0.144938011577
CC3162   OH1  1  0.326959829558  0.163176000000
CC3162    OS  1  0.326959829558  0.163176000000
CC3162     S  1  0.347450500075  0.280671252536
CC3162    SM  1  0.345223253279  0.257919081884
CC3162    SS  1  0.365268474438  0.286840588481
CC3162  HGA1  1  0.288651184677  0.088756043175
CC3162  HGA2  1  0.288651184677  0.078275472531
CC3162  HGA3  1  0.288651184677  0.064818249282
CC3162  HGA4  1  0.280633096214  0.073666921749
CC3162  HGA5  1  0.281523994932  0.067464972838
CC3162  HGA6  1  0.286869387241  0.070011711020
CC3162  HGA7  1  0.285087589805  0.072469005789
CC3162 HGAAM0  1  0.283305792369  0.070011711020
CC3162 HGAAM1  1  0.283305792369  0.070011711020
CC3162 HGAAM2  1  0.281523994932  0.083680000000
CC3162  HGP1  1  0.189271432669  0.089736802707
CC3162  HGP2  1  0.189271432669  0.089736802707
CC3162  HGP3  1  0.209361198763  0.132309697301
CC3162  HGP4  1  0.189271432669  0.089736802707
CC3162  HGP5  1  0.231633666716  0.089736802707
CC3162 HGPAM1  1  0.247224394284  0.039692909190
CC3162 HGPAM2  1  0.247224394284  0.041840000000
CC3162 HGPAM3  1  0.246778944925  0.045833423612
CC3162 HGR51  1  0.290272620344  0.072469005789
CC3162 HGR52  1  0.249451641079  0.089736802707
CC3162 HGR53  1  0.231633666716  0.089736802707
CC3162 HGR61  1  0.290272620344  0.072469005789
CC3162 HGR62  1  0.267269615442  0.089736802707
CC3162 HGR63  1  0.249451641079  0.089736802707
CC3162 HGR71  1  0.290272620344  0.072469005789
CC3162 HGTIP3  1  0.189271432669  0.089736802707
CC3162 CG1T1  1  0.333196120584  0.170981810495
CC3162 CG1T2  1  0.346782326036  0.134409982486
CC3162 CG1N1  1  0.335868816739  0.177512086349
CC3162 CG2D1  1  0.355468588538  0.109105371453
CC3162 CG2D2  1  0.354577689820  0.105847757841
CC3162 CG2D1O  1  0.355468588538  0.109105371453
CC3162 CG2D2O  1  0.355468588538  0.109105371453
CC3162 CG2DC1  1  0.355468588538  0.109105371453
CC3162 CG2DC2  1  0.355468588538  0.109105371453
CC3162 CG2DC3  1  0.354577689820  0.105847757841
CC3162 CG2N1  1  0.347450500075  0.138767581228
CC3162 CG2N2  1  0.347450500075  0.138767581228
CC3162 CG2O1  1  0.347450500075  0.138767581228
CC3162 CG2O2  1  0.320723538531  0.130979917850
CC3162 CG2O3  1  0.347450500075  0.110698234855
CC3162 CG2O4  1  0.329632525712  0.102486650838
CC3162 CG2O5  1  0.347450500075  0.125520000000
CC3162 CG2O6  1  0.347450500075  0.110698234855
CC3162 CG2O7  1  0.308518226092  0.100764063435
CC3162 CG2R51  1  0.356359487256  0.093557084179
CC3162 CG2R52  1  0.365268474438  0.059170695450
CC3162 CG2R53  1  0.365268474438  0.059170695450
CC3162 CG2R57  1  0.356359487256  0.093557084179
CC3162 CG25C1  1  0.355468588538  0.109105371453
CC3162 CG25C2  1  0.355468588538  0.109105371453
CC3162 CG251O  1  0.355468588538  0.109105371453
CC3162 CG252O  1  0.355468588538  0.109105371453
CC3162 CG2R61  1  0.346773417049  0.110698234855
CC3162 CG2R62  1  0.338541512893  0.125520000000
CC3162 CG2R63  1  0.338541512893  0.132309697301
CC3162 CG2R64  1  0.356359487256  0.083680000000
CC3162 CG2R66  1  0.338541512893  0.110698234855
CC3162 CG2R67  1  0.346773417049  0.110698234855
CC3162 CG2RC0  1  0.334977918021  0.131646486622
CC3162 CG2R71  1  0.346987232741  0.108300154755
CC3162 CG2RC7  1  0.334977918021  0.131646486622
CC3162 CG301  1  0.338541512893  0.041840000000
CC3162 CG302  1  0.374177461619  0.059170695450
CC3162 CG311  1  0.338541512893  0.041840000000
CC3162 CG312  1  0.351904993665  0.085746484010
CC3162 CG314  1  0.338541512893  0.041840000000
CC3162 CG321  1  0.338541512893  0.041840000000
CC3162 CG322  1  0.338541512893  0.102486650838
CC3162 CG323  1  0.365268474438  0.138767581228
CC3162 CG324  1  0.338541512893  0.041840000000
CC3162 CG331  1  0.338541512893  0.041840000000
CC3162 CG334  1  0.338541512893  0.041840000000
CC3162 CG3C50  1  0.338541512893  0.041840000000
CC3162 CG3C51  1  0.338541512893  0.041840000000
CC3162 CG3C52  1  0.338541512893  0.041840000000
CC3162 CG3C53  1  0.338541512893  0.041840000000
CC3162 CG3C54  1  0.338541512893  0.041840000000
CC3162 CG3C31  1  0.338541512893  0.041840000000
CC3162 CG3C41  1  0.338541512893  0.041840000000
CC3162 CG3RC1  1  0.338541512893  0.041840000000
CC3162 CG3AM0  1  0.344777803920  0.110698234855
CC3162 CG3AM1  1  0.345668702638  0.116852760686
CC3162 CG3AM2  1  0.346559601357  0.118341390899
CC3162 NG1T1  1  0.328741626994  0.177512086349
CC3162 NG2D1  1  0.334087019303  0.187114168357
CC3162 NG2S0  1  0.334087019303  0.004184000000
CC3162 NG2S1  1  0.307360057758  0.187114168357
CC3162 NG2S2  1  0.334087019303  0.187114168357
CC3162 NG2S3  1  0.334087019303  0.187114168357
CC3162 NG2O1  1  0.334087019303  0.187114168357
CC3162 NG2P1  1  0.334087019303  0.187114168357
CC3162 NG2R43  1  0.334087019303  0.187114168357
CC3162 NG2R50  1  0.334087019303  0.187114168357
CC3162 NG2R51  1  0.334087019303  0.187114168357
CC3162 NG2R52  1  0.334087019303  0.187114168357
CC3162 NG2R53  1  0.334087019303  0.187114168357
CC3162 NG2R57  1  0.334087019303  0.187114168357
CC3162 NG2R60  1  0.337650614175  0.102486650838
CC3162 NG2R61  1  0.334087019303  0.187114168357
CC3162 NG2R62  1  0.352795892384  0.093557084179
CC3162 NG2R67  1  0.334087019303  0.187114168357
CC3162 NG2RC0  1  0.334087019303  0.187114168357
CC3162 NG301  1  0.347450500075  0.078275472531
CC3162 NG311  1  0.347450500075  0.088756043175
CC3162 NG321  1  0.346559601357  0.102486650838
CC3162 NG331  1  0.345668702638  0.110698234855
CC3162 NG3C51  1  0.334087019303  0.187114168357
CC3162 NG3N1  1  0.351904993665  0.102486650838
CC3162 NG3P0  1  0.334087019303  0.187114168357
CC3162 NG3P1  1  0.334087019303  0.187114168357
CC3162 NG3P2  1  0.334087019303  0.187114168357
CC3162 NG3P3  1  0.334087019303  0.187114168357
CC3162 OG2D1  1  0.293996576986  0.144938011577
CC3162 OG2D2  1  0.320723538531  0.144938011577
CC3162 OG2D3  1  0.293996576986  0.144938011577
CC3162 OG2D4  1  0.320723538531  0.144938011577
CC3162 OG2D5  1  0.320010819556  0.169954883425
CC3162 OG2N1  1  0.320723538531  0.144938011577
CC3162 OG2P1  1  0.320723538531  0.144938011577
CC3162 OG2R50  1  0.320723538531  0.144938011577
CC3162 OG3R60  1  0.316269044940  0.132309697301
CC3162 OG301  1  0.316269044940  0.132309697301
CC3162 OG302  1  0.316269044940  0.132309697301
CC3162 OG303  1  0.316269044940  0.132309697301
CC3162 OG304  1  0.316269044940  0.132309697301
CC3162 OG311  1  0.326514380198  0.183381431383
CC3162 OG312  1  0.325178032121  0.144938011577
CC3162 OG3C31  1  0.316269044940  0.132309697301
CC3162 OG3C51  1  0.316269044940  0.132309697301
CC3162 OG3C61  1  0.316269044940  0.132309697301
CC3162 OGTIP3  1  0.326799467788  0.163176000000
CC3162 SG2D1  1  0.351904993665  0.314496560236
CC3162 SG2R50  1  0.347450500075  0.280671252536
CC3162 SG311  1  0.347450500075  0.280671252536
CC3162 SG301  1  0.345223253279  0.257919081884
CC3162 SG302  1  0.365268474438  0.286840588481
CC3162 SG3O1  1  0.356359487256  0.286840588481
CC3162 SG3O2  1  0.347450500075  0.247528778125
CC3162 SG3O3  1  0.347450500075  0.247528778125
CC3162  FGA1  1  0.314487247504  0.153729976257
CC3162  FGA2  1  0.314487247504  0.135577095411
CC3162  FGA3  1  0.311814551349  0.130309939452
CC3162  FGP1  1  0.311814551349  0.130309939452
CC3162  FGR1  1  0.320723538531  0.144938011577
CC3162 CLGA1  1  0.339432411611  0.245040988571
CC3162 CLGA3  1  0.339432411611  0.232955260941
CC3162 BRGA1  1  0.344777803920  0.289876023155
CC3162 BRGA2  1  0.351904993665  0.304599797767
CC3162 BRGA3  1  0.347450500075  0.307459952514
CC3162   SOD  1  0.294954293108  0.090610410351
CC3162   CLA  1  0.371504765465  0.162045623205
CC3162   PG0  1  0.360813980847  0.320014464673
CC3162   PG1  1  0.360813980847  0.320014464673
CC3162   PG2  1  0.360813980847  0.320014464673
CC3162  ALG1  1  0.347450500075  0.337324864189
CC3162   LPH  1  0.169270756447  0.000000000000
CC3162 CLGR1  1  0.334977918021  0.200657590935
CC3162 BRGR1  1  0.345668702638  0.236682781799
CC3162  IGR1  1  0.368832069310  0.301712530731
CC3162 SG2P1  1  0.355798221064  0.332305491450
CC3162 OG2S1  1  0.318906105146  0.157831660601
CC3162 SG2P2  1  0.352314807076  0.329421919951
CC3162 SEGD1  1  0.363041227642  0.330244580395
CC3162 BG201  1  0.396449929572  0.081561175077
CC3162 CC301  1  0.338541512893  0.041840000000
CC3162 CC3062  1  0.338541512893  0.041840000000
CC3162 CC311  1  0.338541512893  0.041840000000
CC3162 CC3161  1  0.338541512893  0.041840000000
CC3162 CC3162  1  0.338541512893  0.041840000000
CC3162 CC3163  1  0.338541512893  0.041840000000
CC3162 CC321  1  0.338541512893  0.041840000000
CC3162 CC3261  1  0.338541512893  0.041840000000
CC3162 CC3263  1  0.338541512893  0.041840000000
CC3162 CC331  1  0.338541512893  0.041840000000
CC3162 CC2O1  1  0.347450500075  0.138767581228
CC3162 CC2O2  1  0.347450500075  0.110698234855
CC3162 CC2O3  1  0.347450500075  0.125520000000
CC3162 CC2O4  1  0.329632525712  0.102486650838
CC3162 CC2O5  1  0.320723538531  0.130979917850
CC3162 OC2D1  1  0.293996576986  0.144938011577
CC3162 OC2D2  1  0.320723538531  0.144938011577
CC3162 OC2D3  1  0.293996576986  0.144938011577
CC3162 OC2D4  1  0.293996576986  0.144938011577
CC3162 OC3C61  1  0.316269044940  0.132309697301
CC3162 OC311  1  0.326514380198  0.183381431383
CC3162 NC2D1  1  0.307360057758  0.187114168357
CC3162  HCP1  1  0.189271432669  0.089736802707
CC3162  HCA1  1  0.288651184677  0.088756043175
CC3162  HCA2  1  0.288651184677  0.078275472531
CC3162  HCA3  1  0.288651184677  0.064818249282
CC3162 CC312  1  0.338541512893  0.041840000000
CC3162 CC322  1  0.338541512893  0.041840000000
CC3162  HCR1  1  0.240542653898  0.089736802707
CC3162 HCA3M  1  0.288651184677  0.064818249282
CC3162 CC321C  1  0.338541512893  0.041840000000
CC3162 CC321D  1  0.338541512893  0.041840000000
CC3162 CC311C  1  0.338541512893  0.041840000000
CC3162 CC311D  1  0.338541512893  0.041840000000
CC3162 OC301  1  0.316269044940  0.132309697301
CC3162 OC302  1  0.316269044940  0.132309697301
CC3162 HCP1M  1  0.189271432669  0.089736802707
CC3162 OC311M  1  0.326514380198  0.183381431383
CC3162 OC3C5M  1  0.316269044940  0.132309697301
CC3162 CC322C  1  0.338541512893  0.041840000000
CC3162 HCA2C2  1  0.285087589805  0.078275472531
CC3162 CC312C  1  0.338541512893  0.041840000000
CC3162 HCA1C2  1  0.288651184677  0.088756043175
CC3162 OC3C51  1  0.316269044940  0.132309697301
CC3162 CC3152  1  0.338541512893  0.041840000000
CC3162 CC3051  1  0.338541512893  0.041840000000
CC3162 CC3251  1  0.338541512893  0.041840000000
CC3162 CC3151  1  0.338541512893  0.041840000000
CC3162 CC3153  1  0.338541512893  0.041840000000
CC3162 OC2DP  1  0.320723538531  0.144938011577
CC3162 OC312  1  0.326959829558  0.163176000000
CC3162 OC30P  1  0.326959829558  0.163176000000
CC3162    PC  1  0.360813980847  0.320014464673
CC3162    SC  1  0.356359487256  0.286840588481
CC3162 CC312D  1  0.338541512893  0.041840000000
CC3162 OC303  1  0.316269044940  0.132309697301
CC3162 NC311  1  0.347450500075  0.088756043175
CC3162   HN1  1  0.189271432669  0.089736802707
CC3162   HN2  1  0.189271432669  0.089736802707
CC3162   HN3  1  0.267269615442  0.089736802707
CC3162   HN4  1  0.189271432669  0.089736802707
CC3162   HN5  1  0.189271432669  0.089736802707
CC3162   HN6  1  0.286869387241  0.062058748940
CC3162   HN7  1  0.286869387241  0.062058748940
CC3162   HN8  1  0.288651184677  0.070011711020
CC3162   HN9  1  0.288651184677  0.064818249282
CC3162   NN1  1  0.334087019303  0.187114168357
CC3162   NN2  1  0.334087019303  0.187114168357
CC3162  NN2B  1  0.334087019303  0.187114168357
CC3162  NN2G  1  0.334087019303  0.187114168357
CC3162  NN2U  1  0.334087019303  0.187114168357
CC3162   NN3  1  0.334087019303  0.187114168357
CC3162  NN3A  1  0.334087019303  0.187114168357
CC3162  NN3G  1  0.334087019303  0.187114168357
CC3162   NN4  1  0.334087019303  0.187114168357
CC3162   NN6  1  0.334087019303  0.187114168357
CC3162   ON1  1  0.320723538531  0.144938011577
CC3162  ON1C  1  0.320723538531  0.144938011577
CC3162   ON2  1  0.326959829558  0.163176000000
CC3162   ON3  1  0.320723538531  0.144938011577
CC3162   ON4  1  0.326959829558  0.163176000000
CC3162   ON5  1  0.326959829558  0.163176000000
CC3162   ON6  1  0.326959829558  0.163176000000
CC3162  ON6B  1  0.326959829558  0.163176000000
CC3162   CN1  1  0.338541512893  0.132309697301
CC3162  CN1T  1  0.338541512893  0.132309697301
CC3162   CN2  1  0.338541512893  0.132309697301
CC3162   CN3  1  0.338541512893  0.125520000000
CC3162  CN3T  1  0.338541512893  0.125520000000
CC3162   CN4  1  0.338541512893  0.114583559030
CC3162   CN5  1  0.338541512893  0.114583559030
CC3162  CN5G  1  0.338541512893  0.114583559030
CC3162   CN7  1  0.338541512893  0.041840000000
CC3162  CN7B  1  0.338541512893  0.041840000000
CC3162   CN8  1  0.338541512893  0.041840000000
CC3162  CN8B  1  0.338541512893  0.041840000000
CC3162   CN9  1  0.338541512893  0.041840000000
CC3162     P  1  0.360813980847  0.320014464673
CC3162    P2  1  0.360813980847  0.320014464673
CC3162    P3  1  0.360813980847  0.320014464673
CC3162    P4  1  0.360813980847  0.320014464673
CC3162   HOL  1  0.189271432669  0.089736802707
CC3162  HAL1  1  0.286869387241  0.062058748940
CC3162  HAL2  1  0.288651184677  0.070011711020
CC3162  HAL3  1  0.288651184677  0.064818249282
CC3162   HBL  1  0.286869387241  0.062058748940
CC3162   HCL  1  0.189271432669  0.089736802707
CC3162    HL  1  0.231633666716  0.089736802707
CC3162  HEL1  1  0.280633096214  0.073666921749
CC3162  HEL2  1  0.281523994932  0.067464972838
CC3162    CL  1  0.347450500075  0.110698234855
CC3162   CCL  1  0.347450500075  0.110698234855
CC3162  CTL1  1  0.338541512893  0.041840000000
CC3162  CTL2  1  0.338541512893  0.041840000000
CC3162  CTL3  1  0.338541512893  0.041840000000
CC3162  CTL5  1  0.338541512893  0.041840000000
CC3162  CEL1  1  0.355468588538  0.109105371453
CC3162  CEL2  1  0.354577689820  0.105847757841
CC3162  CRL1  1  0.338541512893  0.041840000000
CC3162  CRL2  1  0.338541512893  0.041840000000
CC3162   OBL  1  0.293996576986  0.144938011577
CC3162   OCL  1  0.320723538531  0.144938011577
CC3162   O2L  1  0.320723538531  0.144938011577
CC3162   OHL  1  0.326959829558  0.163176000000
CC3162   OSL  1  0.316269044940  0.132309697301
CC3162  OSLP  1  0.316269044940  0.132309697301
CC3162  NH3L  1  0.334087019303  0.187114168357
CC3162   NTL  1  0.334087019303  0.187114168357
CC3162    SL  1  0.356359487256  0.286840588481
CC3162    PL  1  0.360813980847  0.320014464673
CC3162 HCA1A  1  0.288651184677  0.088756043175
CC3162 HCA2A  1  0.288651184677  0.078275472531
CC3162 HCA3A  1  0.288651184677  0.064818249282
CC3162 CC30A  1  0.338541512893  0.041840000000
CC3162 CC31A  1  0.338541512893  0.041840000000
CC3162 CC32A  1  0.338541512893  0.041840000000
CC3162 CC33A  1  0.338541512893  0.041840000000
CC3162 CC326A  1  0.338541512893  0.041840000000
CC3162 HCA25A  1  0.285087589805  0.078275472531
CC3162 CC325A  1  0.338541512893  0.041840000000
CC3162 CC325B  1  0.338541512893  0.041840000000
CC3162 OC305A  1  0.316269044940  0.132309697301
CC3162 OC30A  1  0.316269044940  0.132309697301
CC3162  HSIO  1  0.189271432669  0.089736802707
CC3162  HSIA  1  0.286869387241  0.062058748940
CC3162   HAL  1  0.286869387241  0.062058748940
CC3162    AL  1  0.365268474438  0.337324864189
CC3162    SI  1  0.365268474438  0.324091246411
CC3162  SIH3  1  0.365268474438  0.324091246411
CC3162  OSIH  1  0.326959829558  0.163176000000
CC3162  OSIE  1  0.326959829558  0.163176000000
CC3162  OSIA  1  0.326959829558  0.163176000000
CC3162   OAL  1  0.326959829558  0.163176000000
CC3162    HT  1  0.189271432669  0.089736802707
CC3162    OT  1  0.326799467788  0.163176000000
CC3162   DUM  1  0.169270756447  0.000000000000
CC3162    CM  1  0.356359487256  0.138767581228
CC3162   CPA  1  0.329632525712  0.125520000000
CC3162   CPB  1  0.329632525712  0.125520000000
CC3162   CPM  1  0.329632525712  0.125520000000
CC3162   CST  1  0.308518226092  0.100764063435
CC3162  CT1X  1  0.338541512893  0.041840000000
CC3162  CT2X  1  0.338541512893  0.041840000000
CC3162  CT3X  1  0.338541512893  0.041840000000
CC3162    HB  1  0.286869387241  0.062058748940
CC3162   NPH  1  0.334087019303  0.187114168357
CC3162    OM  1  0.320723538531  0.144938011577
CC3162   OST  1  0.320010819556  0.169954883425
CC3162   POT  1  0.326403017859  0.123410269913
CC3162   CAL  1  0.291056611216  0.144938011577
CC3162    MG  1  0.274842254546  0.051243325419
CC3162   CES  1  0.356359487256  0.182376331798
CC3162    ZN  1  0.266378716724  0.209200000000
CC3162    FE  1  0.227179173126  0.000000000000
CC3162    HE  1  0.301123766731  0.061020452073
CC3162    NE  1  0.305578260322  0.122698965603
CC3162  CLAL  1  0.339272049842  0.072469005789
CC3162    AG  1  0.300901042052  0.893457908130
CC3162    AU  1  0.300722862308  0.962320000000
CC3162    CU  1  0.285800308779  0.908997471504
CC3162    NI  1  0.282949432881  0.994525446633
CC3162    PB  1  0.328073452955  0.716185437439
CC3162    PD  1  0.294842930769  1.037598257516
CC3162    PT  1  0.296001099102  1.168527606863
CC3162   CAP  1  0.346773417049  0.110698234855
CC3162    FA  1  0.320723538531  0.144938011577
CC3162    CN  1  0.325178032121  0.187114168357
CC3162    NC  1  0.334087019303  0.324091246411
CC3162   OCA  1  0.293996576986  0.144938011577
CC3162   COA  1  0.347450500075  0.138767581228
CC3162   CF1  1  0.338541512893  0.102486650838
CC3162   CF2  1  0.351904993665  0.085746484010
CC3162   CF3  1  0.374177461619  0.059170695450
CC3162   HF1  1  0.286869387241  0.070011711020
CC3162   HF2  1  0.285087589805  0.072469005789
CC3162    F1  1  0.314487247504  0.153729976257
CC3162    F2  1  0.314487247504  0.135577095411
CC3162    F3  1  0.311814551349  0.130309939452
CC3162    OX  1  0.320723538531  0.144938011577
CC3162    HX  1  0.189271432669  0.089736802707
CC3162  HPER  1  0.189271432669  0.089736802707
CC3162  OPER  1  0.318427692534  0.188901923946
CC3162   LIT  1  0.284864865125  0.020196198771
CC3162   RUB  1  0.338541512893  0.162045623205
CC3162   BAR  1  0.337650614175  0.162045623205
CC3162   CAD  1  0.290165712498  0.144938011577
CC3162  ON2B  1  0.326959829558  0.163176000000
CC3162    SP  1  0.365268474438  0.280671252536
CC3162   HNP  1  0.290272620344  0.072469005789
CC3162  HNE1  1  0.280633096214  0.073666921749
CC3162  HNE2  1  0.281523994932  0.067464972838
CC3162  CN3D  1  0.338541512893  0.125520000000
CC3162  CNE1  1  0.355468588538  0.109105371453
CC3162  CNE2  1  0.354577689820  0.105847757841
CC3162   CNA  1  0.346773417049  0.110698234855
CC3162  CNA2  1  0.338541512893  0.110698234855
CC3162   CNG  1  0.347450500075  0.138767581228
CC3162  NN1C  1  0.334087019303  0.187114168357
CC3162  NN2C  1  0.334087019303  0.187114168357
CC3162  NN3I  1  0.334087019303  0.187114168357
CC3162   NNG  1  0.334087019303  0.187114168357
CC3162   FNA  1  0.320723538531  0.144938011577
CC3162  ON2M  1  0.316269044940  0.132309697301
CC3162   CN6  1  0.338541512893  0.041840000000
CC3162  CN7E  1  0.338541512893  0.041840000000
CC3162  CT2P  1  0.338541512893  0.041840000000
CC3162  CTD1  1  0.338541512893  0.041840000000
CC3162  CPD1  1  0.338541512893  0.041840000000
CC3162  CC1A  1  0.355468588538  0.109105371453
CC3162  CC1B  1  0.355468588538  0.109105371453
CC3162   CC2  1  0.354577689820  0.105847757841
CC3162   NS1  1  0.334087019303  0.187114168357
CC3162   NS2  1  0.334087019303  0.187114168357
CC3162   NHL  1  0.307360057758  0.187114168357
CC3162  CTO1  1  0.338541512893  0.041840000000
CC3162  CEL3  1  0.355468588538  0.109105371453
CC3162  CTO2  1  0.338541512893  0.041840000000
CC3162  HN3B  1  0.249451641079  0.089736802707
CC3162  CN1A  1  0.347450500075  0.110698234855
CC3162  CN3A  1  0.329632525712  0.177512086349
CC3162  CN3B  1  0.329632525712  0.177512086349
CC3162  CN3C  1  0.329632525712  0.177512086349
CC3163     C  1  0.347450500075  0.138767581228
CC3163    CA  1  0.346773417049  0.110698234855
CC3163    CC  1  0.347450500075  0.110698234855
CC3163    CD  1  0.347450500075  0.110698234855
CC3163   CE1  1  0.355468588538  0.109105371453
CC3163   CE2  1  0.354577689820  0.105847757841
CC3163   CP1  1  0.338541512893  0.041840000000
CC3163   CP2  1  0.338541512893  0.041840000000
CC3163   CP3  1  0.338541512893  0.041840000000
CC3163  CPH1  1  0.329632525712  0.093557084179
CC3163  CPH2  1  0.329632525712  0.093557084179
CC3163    CS  1  0.365268474438  0.138767581228
CC3163   CPT  1  0.334977918021  0.131646486622
CC3163    CY  1  0.346559601357  0.113045454929
CC3163   CAI  1  0.346559601357  0.113045454929
CC3163    CT  1  0.338541512893  0.041840000000
CC3163   CT1  1  0.338541512893  0.041840000000
CC3163   CT2  1  0.338541512893  0.041840000000
CC3163  CT2A  1  0.338541512893  0.041840000000
CC3163   CT3  1  0.338541512893  0.041840000000
CC3163    C3  1  0.371950214824  0.059170695450
CC3163     H  1  0.189271432669  0.089736802707
CC3163    HA  1  0.286869387241  0.062058748940
CC3163   HB1  1  0.286869387241  0.062058748940
CC3163   HB2  1  0.288651184677  0.070011711020
CC3163   HE1  1  0.280633096214  0.073666921749
CC3163   HE2  1  0.281523994932  0.067464972838
CC3163    HC  1  0.189271432669  0.089736802707
CC3163    HP  1  0.290272620344  0.072469005789
CC3163   HR1  1  0.249451641079  0.089736802707
CC3163   HR2  1  0.231633666716  0.089736802707
CC3163   HR3  1  0.300054688270  0.036952087465
CC3163    HS  1  0.209361198763  0.132309697301
CC3163   HA1  1  0.288651184677  0.088756043175
CC3163   HA2  1  0.288651184677  0.077149148019
CC3163   HA3  1  0.288651184677  0.064818249282
CC3163     N  1  0.334087019303  0.004184000000
CC3163   NC2  1  0.334087019303  0.187114168357
CC3163   NH1  1  0.307360057758  0.187114168357
CC3163   NH2  1  0.334087019303  0.187114168357
CC3163   NH3  1  0.334087019303  0.187114168357
CC3163    NP  1  0.334087019303  0.187114168357
CC3163   NR1  1  0.334087019303  0.187114168357
CC3163   NR2  1  0.334087019303  0.187114168357
CC3163   NR3  1  0.334087019303  0.187114168357
CC3163    NY  1  0.334087019303  0.187114168357
CC3163     O  1  0.293996576986  0.144938011577
CC3163    OB  1  0.293996576986  0.144938011577
CC3163    OC  1  0.320723538531  0.144938011577
CC3163   OH1  1  0.326959829558  0.163176000000
CC3163    OS  1  0.326959829558  0.163176000000
CC3163     S  1  0.347450500075  0.280671252536
CC3163    SM  1  0.345223253279  0.257919081884
CC3163    SS  1  0.365268474438  0.286840588481
CC3163  HGA1  1  0.288651184677  0.088756043175
CC3163  HGA2  1  0.288651184677  0.078275472531
CC3163  HGA3  1  0.288651184677  0.064818249282
CC3163  HGA4  1  0.280633096214  0.073666921749
CC3163  HGA5  1  0.281523994932  0.067464972838
CC3163  HGA6  1  0.286869387241  0.070011711020
CC3163  HGA7  1  0.285087589805  0.072469005789
CC3163 HGAAM0  1  0.283305792369  0.070011711020
CC3163 HGAAM1  1  0.283305792369  0.070011711020
CC3163 HGAAM2  1  0.281523994932  0.083680000000
CC3163  HGP1  1  0.189271432669  0.089736802707
CC3163  HGP2  1  0.189271432669  0.089736802707
CC3163  HGP3  1  0.209361198763  0.132309697301
CC3163  HGP4  1  0.189271432669  0.089736802707
CC3163  HGP5  1  0.231633666716  0.089736802707
CC3163 HGPAM1  1  0.247224394284  0.039692909190
CC3163 HGPAM2  1  0.247224394284  0.041840000000
CC3163 HGPAM3  1  0.246778944925  0.045833423612
CC3163 HGR51  1  0.290272620344  0.072469005789
CC3163 HGR52  1  0.249451641079  0.089736802707
CC3163 HGR53  1  0.231633666716  0.089736802707
CC3163 HGR61  1  0.290272620344  0.072469005789
CC3163 HGR62  1  0.267269615442  0.089736802707
CC3163 HGR63  1  0.249451641079  0.089736802707
CC3163 HGR71  1  0.290272620344  0.072469005789
CC3163 HGTIP3  1  0.189271432669  0.089736802707
CC3163 CG1T1  1  0.333196120584  0.170981810495
CC3163 CG1T2  1  0.346782326036  0.134409982486
CC3163 CG1N1  1  0.335868816739  0.177512086349
CC3163 CG2D1  1  0.355468588538  0.109105371453
CC3163 CG2D2  1  0.354577689820  0.105847757841
CC3163 CG2D1O  1  0.355468588538  0.109105371453
CC3163 CG2D2O  1  0.355468588538  0.109105371453
CC3163 CG2DC1  1  0.355468588538  0.109105371453
CC3163 CG2DC2  1  0.355468588538  0.109105371453
CC3163 CG2DC3  1  0.354577689820  0.105847757841
CC3163 CG2N1  1  0.347450500075  0.138767581228
CC3163 CG2N2  1  0.347450500075  0.138767581228
CC3163 CG2O1  1  0.347450500075  0.138767581228
CC3163 CG2O2  1  0.320723538531  0.130979917850
CC3163 CG2O3  1  0.347450500075  0.110698234855
CC3163 CG2O4  1  0.329632525712  0.102486650838
CC3163 CG2O5  1  0.347450500075  0.125520000000
CC3163 CG2O6  1  0.347450500075  0.110698234855
CC3163 CG2O7  1  0.308518226092  0.100764063435
CC3163 CG2R51  1  0.356359487256  0.093557084179
CC3163 CG2R52  1  0.365268474438  0.059170695450
CC3163 CG2R53  1  0.365268474438  0.059170695450
CC3163 CG2R57  1  0.356359487256  0.093557084179
CC3163 CG25C1  1  0.355468588538  0.109105371453
CC3163 CG25C2  1  0.355468588538  0.109105371453
CC3163 CG251O  1  0.355468588538  0.109105371453
CC3163 CG252O  1  0.355468588538  0.109105371453
CC3163 CG2R61  1  0.346773417049  0.110698234855
CC3163 CG2R62  1  0.338541512893  0.125520000000
CC3163 CG2R63  1  0.338541512893  0.132309697301
CC3163 CG2R64  1  0.356359487256  0.083680000000
CC3163 CG2R66  1  0.338541512893  0.110698234855
CC3163 CG2R67  1  0.346773417049  0.110698234855
CC3163 CG2RC0  1  0.334977918021  0.131646486622
CC3163 CG2R71  1  0.346987232741  0.108300154755
CC3163 CG2RC7  1  0.334977918021  0.131646486622
CC3163 CG301  1  0.338541512893  0.041840000000
CC3163 CG302  1  0.374177461619  0.059170695450
CC3163 CG311  1  0.338541512893  0.041840000000
CC3163 CG312  1  0.351904993665  0.085746484010
CC3163 CG314  1  0.338541512893  0.041840000000
CC3163 CG321  1  0.338541512893  0.041840000000
CC3163 CG322  1  0.338541512893  0.102486650838
CC3163 CG323  1  0.365268474438  0.138767581228
CC3163 CG324  1  0.338541512893  0.041840000000
CC3163 CG331  1  0.338541512893  0.041840000000
CC3163 CG334  1  0.338541512893  0.041840000000
CC3163 CG3C50  1  0.338541512893  0.041840000000
CC3163 CG3C51  1  0.338541512893  0.041840000000
CC3163 CG3C52  1  0.338541512893  0.041840000000
CC3163 CG3C53  1  0.338541512893  0.041840000000
CC3163 CG3C54  1  0.338541512893  0.041840000000
CC3163 CG3C31  1  0.338541512893  0.041840000000
CC3163 CG3C41  1  0.338541512893  0.041840000000
CC3163 CG3RC1  1  0.338541512893  0.041840000000
CC3163 CG3AM0  1  0.344777803920  0.110698234855
CC3163 CG3AM1  1  0.345668702638  0.116852760686
CC3163 CG3AM2  1  0.346559601357  0.118341390899
CC3163 NG1T1  1  0.328741626994  0.177512086349
CC3163 NG2D1  1  0.334087019303  0.187114168357
CC3163 NG2S0  1  0.334087019303  0.004184000000
CC3163 NG2S1  1  0.307360057758  0.187114168357
CC3163 NG2S2  1  0.334087019303  0.187114168357
CC3163 NG2S3  1  0.334087019303  0.187114168357
CC3163 NG2O1  1  0.334087019303  0.187114168357
CC3163 NG2P1  1  0.334087019303  0.187114168357
CC3163 NG2R43  1  0.334087019303  0.187114168357
CC3163 NG2R50  1  0.334087019303  0.187114168357
CC3163 NG2R51  1  0.334087019303  0.187114168357
CC3163 NG2R52  1  0.334087019303  0.187114168357
CC3163 NG2R53  1  0.334087019303  0.187114168357
CC3163 NG2R57  1  0.334087019303  0.187114168357
CC3163 NG2R60  1  0.337650614175  0.102486650838
CC3163 NG2R61  1  0.334087019303  0.187114168357
CC3163 NG2R62  1  0.352795892384  0.093557084179
CC3163 NG2R67  1  0.334087019303  0.187114168357
CC3163 NG2RC0  1  0.334087019303  0.187114168357
CC3163 NG301  1  0.347450500075  0.078275472531
CC3163 NG311  1  0.347450500075  0.088756043175
CC3163 NG321  1  0.346559601357  0.102486650838
CC3163 NG331  1  0.345668702638  0.110698234855
CC3163 NG3C51  1  0.334087019303  0.187114168357
CC3163 NG3N1  1  0.351904993665  0.102486650838
CC3163 NG3P0  1  0.334087019303  0.187114168357
CC3163 NG3P1  1  0.334087019303  0.187114168357
CC3163 NG3P2  1  0.334087019303  0.187114168357
CC3163 NG3P3  1  0.334087019303  0.187114168357
CC3163 OG2D1  1  0.293996576986  0.144938011577
CC3163 OG2D2  1  0.320723538531  0.144938011577
CC3163 OG2D3  1  0.293996576986  0.144938011577
CC3163 OG2D4  1  0.320723538531  0.144938011577
CC3163 OG2D5  1  0.320010819556  0.169954883425
CC3163 OG2N1  1  0.320723538531  0.144938011577
CC3163 OG2P1  1  0.320723538531  0.144938011577
CC3163 OG2R50  1  0.320723538531  0.144938011577
CC3163 OG3R60  1  0.316269044940  0.132309697301
CC3163 OG301  1  0.316269044940  0.132309697301
CC3163 OG302  1  0.316269044940  0.132309697301
CC3163 OG303  1  0.316269044940  0.132309697301
CC3163 OG304  1  0.316269044940  0.132309697301
CC3163 OG311  1  0.326514380198  0.183381431383
CC3163 OG312  1  0.325178032121  0.144938011577
CC3163 OG3C31  1  0.316269044940  0.132309697301
CC3163 OG3C51  1  0.316269044940  0.132309697301
CC3163 OG3C61  1  0.316269044940  0.132309697301
CC3163 OGTIP3  1  0.326799467788  0.163176000000
CC3163 SG2D1  1  0.351904993665  0.314496560236
CC3163 SG2R50  1  0.347450500075  0.280671252536
CC3163 SG311  1  0.347450500075  0.280671252536
CC3163 SG301  1  0.345223253279  0.257919081884
CC3163 SG302  1  0.365268474438  0.286840588481
CC3163 SG3O1  1  0.356359487256  0.286840588481
CC3163 SG3O2  1  0.347450500075  0.247528778125
CC3163 SG3O3  1  0.347450500075  0.247528778125
CC3163  FGA1  1  0.314487247504  0.153729976257
CC3163  FGA2  1  0.314487247504  0.135577095411
CC3163  FGA3  1  0.311814551349  0.130309939452
CC3163  FGP1  1  0.311814551349  0.130309939452
CC3163  FGR1  1  0.320723538531  0.144938011577
CC3163 CLGA1  1  0.339432411611  0.245040988571
CC3163 CLGA3  1  0.339432411611  0.232955260941
CC3163 BRGA1  1  0.344777803920  0.289876023155
CC3163 BRGA2  1  0.351904993665  0.304599797767
CC3163 BRGA3  1  0.347450500075  0.307459952514
CC3163   SOD  1  0.294954293108  0.090610410351
CC3163   CLA  1  0.371504765465  0.162045623205
CC3163   PG0  1  0.360813980847  0.320014464673
CC3163   PG1  1  0.360813980847  0.320014464673
CC3163   PG2  1  0.360813980847  0.320014464673
CC3163  ALG1  1  0.347450500075  0.337324864189
CC3163   LPH  1  0.169270756447  0.000000000000
CC3163 CLGR1  1  0.334977918021  0.200657590935
CC3163 BRGR1  1  0.345668702638  0.236682781799
CC3163  IGR1  1  0.368832069310  0.301712530731
CC3163 SG2P1  1  0.355798221064  0.332305491450
CC3163 OG2S1  1  0.318906105146  0.157831660601
CC3163 SG2P2  1  0.352314807076  0.329421919951
CC3163 SEGD1  1  0.363041227642  0.330244580395
CC3163 BG201  1  0.396449929572  0.081561175077
CC3163 CC301  1  0.338541512893  0.041840000000
CC3163 CC3062  1  0.338541512893  0.041840000000
CC3163 CC311  1  0.338541512893  0.041840000000
CC3163 CC3161  1  0.338541512893  0.041840000000
CC3163 CC3162  1  0.338541512893  0.041840000000
CC3163 CC3163  1  0.338541512893  0.041840000000
CC3163 CC321  1  0.338541512893  0.041840000000
CC3163 CC3261  1  0.338541512893  0.041840000000
CC3163 CC3263  1  0.338541512893  0.041840000000
CC3163 CC331  1  0.338541512893  0.041840000000
CC3163 CC2O1  1  0.347450500075  0.138767581228
CC3163 CC2O2  1  0.347450500075  0.110698234855
CC3163 CC2O3  1  0.347450500075  0.125520000000
CC3163 CC2O4  1  0.329632525712  0.102486650838
CC3163 CC2O5  1  0.320723538531  0.130979917850
CC3163 OC2D1  1  0.293996576986  0.144938011577
CC3163 OC2D2  1  0.320723538531  0.144938011577
CC3163 OC2D3  1  0.293996576986  0.144938011577
CC3163 OC2D4  1  0.293996576986  0.144938011577
CC3163 OC3C61  1  0.316269044940  0.132309697301
CC3163 OC311  1  0.326514380198  0.183381431383
CC3163 NC2D1  1  0.307360057758  0.187114168357
CC3163  HCP1  1  0.189271432669  0.089736802707
CC3163  HCA1  1  0.288651184677  0.088756043175
CC3163  HCA2  1  0.288651184677  0.078275472531
CC3163  HCA3  1  0.288651184677  0.064818249282
CC3163 CC312  1  0.338541512893  0.041840000000
CC3163 CC322  1  0.338541512893  0.041840000000
CC3163  HCR1  1  0.240542653898  0.089736802707
CC3163 HCA3M  1  0.288651184677  0.064818249282
CC3163 CC321C  1  0.338541512893  0.041840000000
CC3163 CC321D  1  0.338541512893  0.041840000000
CC3163 CC311C  1  0.338541512893  0.041840000000
CC3163 CC311D  1  0.338541512893  0.041840000000
CC3163 OC301  1  0.316269044940  0.132309697301
CC3163 OC302  1  0.316269044940  0.132309697301
CC3163 HCP1M  1  0.189271432669  0.089736802707
CC3163 OC311M  1  0.326514380198  0.183381431383
CC3163 OC3C5M  1  0.316269044940  0.132309697301
CC3163 CC322C  1  0.338541512893  0.041840000000
CC3163 HCA2C2  1  0.285087589805  0.078275472531
CC3163 CC312C  1  0.338541512893  0.041840000000
CC3163 HCA1C2  1  0.288651184677  0.088756043175
CC3163 OC3C51  1  0.316269044940  0.132309697301
CC3163 CC3152  1  0.338541512893  0.041840000000
CC3163 CC3051  1  0.338541512893  0.041840000000
CC3163 CC3251  1  0.338541512893  0.041840000000
CC3163 CC3151  1  0.338541512893  0.041840000000
CC3163 CC3153  1  0.338541512893  0.041840000000
CC3163 OC2DP  1  0.320723538531  0.144938011577
CC3163 OC312  1  0.326959829558  0.163176000000
CC3163 OC30P  1  0.326959829558  0.163176000000
CC3163    PC  1  0.360813980847  0.320014464673
CC3163    SC  1  0.356359487256  0.286840588481
CC3163 CC312D  1  0.338541512893  0.041840000000
CC3163 OC303  1  0.316269044940  0.132309697301
CC3163 NC311  1  0.347450500075  0.088756043175
CC3163   HN1  1  0.189271432669  0.089736802707
CC3163   HN2  1  0.189271432669  0.089736802707
CC3163   HN3  1  0.267269615442  0.089736802707
CC3163   HN4  1  0.189271432669  0.089736802707
CC3163   HN5  1  0.189271432669  0.089736802707
CC3163   HN6  1  0.286869387241  0.062058748940
CC3163   HN7  1  0.286869387241  0.062058748940
CC3163   HN8  1  0.288651184677  0.070011711020
CC3163   HN9  1  0.288651184677  0.064818249282
CC3163   NN1  1  0.334087019303  0.187114168357
CC3163   NN2  1  0.334087019303  0.187114168357
CC3163  NN2B  1  0.334087019303  0.187114168357
CC3163  NN2G  1  0.334087019303  0.187114168357
CC3163  NN2U  1  0.334087019303  0.187114168357
CC3163   NN3  1  0.334087019303  0.187114168357
CC3163  NN3A  1  0.334087019303  0.187114168357
CC3163  NN3G  1  0.334087019303  0.187114168357
CC3163   NN4  1  0.334087019303  0.187114168357
CC3163   NN6  1  0.334087019303  0.187114168357
CC3163   ON1  1  0.320723538531  0.144938011577
CC3163  ON1C  1  0.320723538531  0.144938011577
CC3163   ON2  1  0.326959829558  0.163176000000
CC3163   ON3  1  0.320723538531  0.144938011577
CC3163   ON4  1  0.326959829558  0.163176000000
CC3163   ON5  1  0.326959829558  0.163176000000
CC3163   ON6  1  0.326959829558  0.163176000000
CC3163  ON6B  1  0.326959829558  0.163176000000
CC3163   CN1  1  0.338541512893  0.132309697301
CC3163  CN1T  1  0.338541512893  0.132309697301
CC3163   CN2  1  0.338541512893  0.132309697301
CC3163   CN3  1  0.338541512893  0.125520000000
CC3163  CN3T  1  0.338541512893  0.125520000000
CC3163   CN4  1  0.338541512893  0.114583559030
CC3163   CN5  1  0.338541512893  0.114583559030
CC3163  CN5G  1  0.338541512893  0.114583559030
CC3163   CN7  1  0.338541512893  0.041840000000
CC3163  CN7B  1  0.338541512893  0.041840000000
CC3163   CN8  1  0.338541512893  0.041840000000
CC3163  CN8B  1  0.338541512893  0.041840000000
CC3163   CN9  1  0.338541512893  0.041840000000
CC3163     P  1  0.360813980847  0.320014464673
CC3163    P2  1  0.360813980847  0.320014464673
CC3163    P3  1  0.360813980847  0.320014464673
CC3163    P4  1  0.360813980847  0.320014464673
CC3163   HOL  1  0.189271432669  0.089736802707
CC3163  HAL1  1  0.286869387241  0.062058748940
CC3163  HAL2  1  0.288651184677  0.070011711020
CC3163  HAL3  1  0.288651184677  0.064818249282
CC3163   HBL  1  0.286869387241  0.062058748940
CC3163   HCL  1  0.189271432669  0.089736802707
CC3163    HL  1  0.231633666716  0.089736802707
CC3163  HEL1  1  0.280633096214  0.073666921749
CC3163  HEL2  1  0.281523994932  0.067464972838
CC3163    CL  1  0.347450500075  0.110698234855
CC3163   CCL  1  0.347450500075  0.110698234855
CC3163  CTL1  1  0.338541512893  0.041840000000
CC3163  CTL2  1  0.338541512893  0.041840000000
CC3163  CTL3  1  0.338541512893  0.041840000000
CC3163  CTL5  1  0.338541512893  0.041840000000
CC3163  CEL1  1  0.355468588538  0.109105371453
CC3163  CEL2  1  0.354577689820  0.105847757841
CC3163  CRL1  1  0.338541512893  0.041840000000
CC3163  CRL2  1  0.338541512893  0.041840000000
CC3163   OBL  1  0.293996576986  0.144938011577
CC3163   OCL  1  0.320723538531  0.144938011577
CC3163   O2L  1  0.320723538531  0.144938011577
CC3163   OHL  1  0.326959829558  0.163176000000
CC3163   OSL  1  0.316269044940  0.132309697301
CC3163  OSLP  1  0.316269044940  0.132309697301
CC3163  NH3L  1  0.334087019303  0.187114168357
CC3163   NTL  1  0.334087019303  0.187114168357
CC3163    SL  1  0.356359487256  0.286840588481
CC3163    PL  1  0.360813980847  0.320014464673
CC3163 HCA1A  1  0.288651184677  0.088756043175
CC3163 HCA2A  1  0.288651184677  0.078275472531
CC3163 HCA3A  1  0.288651184677  0.064818249282
CC3163 CC30A  1  0.338541512893  0.041840000000
CC3163 CC31A  1  0.338541512893  0.041840000000
CC3163 CC32A  1  0.338541512893  0.041840000000
CC3163 CC33A  1  0.338541512893  0.041840000000
CC3163 CC326A  1  0.338541512893  0.041840000000
CC3163 HCA25A  1  0.285087589805  0.078275472531
CC3163 CC325A  1  0.338541512893  0.041840000000
CC3163 CC325B  1  0.338541512893  0.041840000000
CC3163 OC305A  1  0.316269044940  0.132309697301
CC3163 OC30A  1  0.316269044940  0.132309697301
CC3163  HSIO  1  0.189271432669  0.089736802707
CC3163  HSIA  1  0.286869387241  0.062058748940
CC3163   HAL  1  0.286869387241  0.062058748940
CC3163    AL  1  0.365268474438  0.337324864189
CC3163    SI  1  0.365268474438  0.324091246411
CC3163  SIH3  1  0.365268474438  0.324091246411
CC3163  OSIH  1  0.326959829558  0.163176000000
CC3163  OSIE  1  0.326959829558  0.163176000000
CC3163  OSIA  1  0.326959829558  0.163176000000
CC3163   OAL  1  0.326959829558  0.163176000000
CC3163    HT  1  0.189271432669  0.089736802707
CC3163    OT  1  0.326799467788  0.163176000000
CC3163   DUM  1  0.169270756447  0.000000000000
CC3163    CM  1  0.356359487256  0.138767581228
CC3163   CPA  1  0.329632525712  0.125520000000
CC3163   CPB  1  0.329632525712  0.125520000000
CC3163   CPM  1  0.329632525712  0.125520000000
CC3163   CST  1  0.308518226092  0.100764063435
CC3163  CT1X  1  0.338541512893  0.041840000000
CC3163  CT2X  1  0.338541512893  0.041840000000
CC3163  CT3X  1  0.338541512893  0.041840000000
CC3163    HB  1  0.286869387241  0.062058748940
CC3163   NPH  1  0.334087019303  0.187114168357
CC3163    OM  1  0.320723538531  0.144938011577
CC3163   OST  1  0.320010819556  0.169954883425
CC3163   POT  1  0.326403017859  0.123410269913
CC3163   CAL  1  0.291056611216  0.144938011577
CC3163    MG  1  0.274842254546  0.051243325419
CC3163   CES  1  0.356359487256  0.182376331798
CC3163    ZN  1  0.266378716724  0.209200000000
CC3163    FE  1  0.227179173126  0.000000000000
CC3163    HE  1  0.301123766731  0.061020452073
CC3163    NE  1  0.305578260322  0.122698965603
CC3163  CLAL  1  0.339272049842  0.072469005789
CC3163    AG  1  0.300901042052  0.893457908130
CC3163    AU  1  0.300722862308  0.962320000000
CC3163    CU  1  0.285800308779  0.908997471504
CC3163    NI  1  0.282949432881  0.994525446633
CC3163    PB  1  0.328073452955  0.716185437439
CC3163    PD  1  0.294842930769  1.037598257516
CC3163    PT  1  0.296001099102  1.168527606863
CC3163   CAP  1  0.346773417049  0.110698234855
CC3163    FA  1  0.320723538531  0.144938011577
CC3163    CN  1  0.325178032121  0.187114168357
CC3163    NC  1  0.334087019303  0.324091246411
CC3163   OCA  1  0.293996576986  0.144938011577
CC3163   COA  1  0.347450500075  0.138767581228
CC3163   CF1  1  0.338541512893  0.102486650838
CC3163   CF2  1  0.351904993665  0.085746484010
CC3163   CF3  1  0.374177461619  0.059170695450
CC3163   HF1  1  0.286869387241  0.070011711020
CC3163   HF2  1  0.285087589805  0.072469005789
CC3163    F1  1  0.314487247504  0.153729976257
CC3163    F2  1  0.314487247504  0.135577095411
CC3163    F3  1  0.311814551349  0.130309939452
CC3163    OX  1  0.320723538531  0.144938011577
CC3163    HX  1  0.189271432669  0.089736802707
CC3163  HPER  1  0.189271432669  0.089736802707
CC3163  OPER  1  0.318427692534  0.188901923946
CC3163   LIT  1  0.284864865125  0.020196198771
CC3163   RUB  1  0.338541512893  0.162045623205
CC3163   BAR  1  0.337650614175  0.162045623205
CC3163   CAD  1  0.290165712498  0.144938011577
CC3163  ON2B  1  0.326959829558  0.163176000000
CC3163    SP  1  0.365268474438  0.280671252536
CC3163   HNP  1  0.290272620344  0.072469005789
CC3163  HNE1  1  0.280633096214  0.073666921749
CC3163  HNE2  1  0.281523994932  0.067464972838
CC3163  CN3D  1  0.338541512893  0.125520000000
CC3163  CNE1  1  0.355468588538  0.109105371453
CC3163  CNE2  1  0.354577689820  0.105847757841
CC3163   CNA  1  0.346773417049  0.110698234855
CC3163  CNA2  1  0.338541512893  0.110698234855
CC3163   CNG  1  0.347450500075  0.138767581228
CC3163  NN1C  1  0.334087019303  0.187114168357
CC3163  NN2C  1  0.334087019303  0.187114168357
CC3163  NN3I  1  0.334087019303  0.187114168357
CC3163   NNG  1  0.334087019303  0.187114168357
CC3163   FNA  1  0.320723538531  0.144938011577
CC3163  ON2M  1  0.316269044940  0.132309697301
CC3163   CN6  1  0.338541512893  0.041840000000
CC3163  CN7E  1  0.338541512893  0.041840000000
CC3163  CT2P  1  0.338541512893  0.041840000000
CC3163  CTD1  1  0.338541512893  0.041840000000
CC3163  CPD1  1  0.338541512893  0.041840000000
CC3163  CC1A  1  0.355468588538  0.109105371453
CC3163  CC1B  1  0.355468588538  0.109105371453
CC3163   CC2  1  0.354577689820  0.105847757841
CC3163   NS1  1  0.334087019303  0.187114168357
CC3163   NS2  1  0.334087019303  0.187114168357
CC3163   NHL  1  0.307360057758  0.187114168357
CC3163  CTO1  1  0.338541512893  0.041840000000
CC3163  CEL3  1  0.355468588538  0.109105371453
CC3163  CTO2  1  0.338541512893  0.041840000000
CC3163  HN3B  1  0.249451641079  0.089736802707
CC3163  CN1A  1  0.347450500075  0.110698234855
CC3163  CN3A  1  0.329632525712  0.177512086349
CC3163  CN3B  1  0.329632525712  0.177512086349
CC3163  CN3C  1  0.329632525712  0.177512086349
CC321     C  1  0.347450500075  0.138767581228
CC321    CA  1  0.346773417049  0.110698234855
CC321    CC  1  0.347450500075  0.110698234855
CC321    CD  1  0.347450500075  0.110698234855
CC321   CE1  1  0.355468588538  0.109105371453
CC321   CE2  1  0.354577689820  0.105847757841
CC321   CP1  1  0.338541512893  0.041840000000
CC321   CP2  1  0.338541512893  0.041840000000
CC321   CP3  1  0.338541512893  0.041840000000
CC321  CPH1  1  0.329632525712  0.093557084179
CC321  CPH2  1  0.329632525712  0.093557084179
CC321    CS  1  0.365268474438  0.138767581228
CC321   CPT  1  0.334977918021  0.131646486622
CC321    CY  1  0.346559601357  0.113045454929
CC321   CAI  1  0.346559601357  0.113045454929
CC321    CT  1  0.338541512893  0.041840000000
CC321   CT1  1  0.338541512893  0.041840000000
CC321   CT2  1  0.338541512893  0.041840000000
CC321  CT2A  1  0.338541512893  0.041840000000
CC321   CT3  1  0.338541512893  0.041840000000
CC321    C3  1  0.371950214824  0.059170695450
CC321     H  1  0.189271432669  0.089736802707
CC321    HA  1  0.286869387241  0.062058748940
CC321   HB1  1  0.286869387241  0.062058748940
CC321   HB2  1  0.288651184677  0.070011711020
CC321   HE1  1  0.280633096214  0.073666921749
CC321   HE2  1  0.281523994932  0.067464972838
CC321    HC  1  0.189271432669  0.089736802707
CC321    HP  1  0.290272620344  0.072469005789
CC321   HR1  1  0.249451641079  0.089736802707
CC321   HR2  1  0.231633666716  0.089736802707
CC321   HR3  1  0.300054688270  0.036952087465
CC321    HS  1  0.209361198763  0.132309697301
CC321   HA1  1  0.288651184677  0.088756043175
CC321   HA2  1  0.288651184677  0.077149148019
CC321   HA3  1  0.288651184677  0.064818249282
CC321     N  1  0.334087019303  0.004184000000
CC321   NC2  1  0.334087019303  0.187114168357
CC321   NH1  1  0.307360057758  0.187114168357
CC321   NH2  1  0.334087019303  0.187114168357
CC321   NH3  1  0.334087019303  0.187114168357
CC321    NP  1  0.334087019303  0.187114168357
CC321   NR1  1  0.334087019303  0.187114168357
CC321   NR2  1  0.334087019303  0.187114168357
CC321   NR3  1  0.334087019303  0.187114168357
CC321    NY  1  0.334087019303  0.187114168357
CC321     O  1  0.293996576986  0.144938011577
CC321    OB  1  0.293996576986  0.144938011577
CC321    OC  1  0.320723538531  0.144938011577
CC321   OH1  1  0.326959829558  0.163176000000
CC321    OS  1  0.326959829558  0.163176000000
CC321     S  1  0.347450500075  0.280671252536
CC321    SM  1  0.345223253279  0.257919081884
CC321    SS  1  0.365268474438  0.286840588481
CC321  HGA1  1  0.288651184677  0.088756043175
CC321  HGA2  1  0.288651184677  0.078275472531
CC321  HGA3  1  0.288651184677  0.064818249282
CC321  HGA4  1  0.280633096214  0.073666921749
CC321  HGA5  1  0.281523994932  0.067464972838
CC321  HGA6  1  0.286869387241  0.070011711020
CC321  HGA7  1  0.285087589805  0.072469005789
CC321 HGAAM0  1  0.283305792369  0.070011711020
CC321 HGAAM1  1  0.283305792369  0.070011711020
CC321 HGAAM2  1  0.281523994932  0.083680000000
CC321  HGP1  1  0.189271432669  0.089736802707
CC321  HGP2  1  0.189271432669  0.089736802707
CC321  HGP3  1  0.209361198763  0.132309697301
CC321  HGP4  1  0.189271432669  0.089736802707
CC321  HGP5  1  0.231633666716  0.089736802707
CC321 HGPAM1  1  0.247224394284  0.039692909190
CC321 HGPAM2  1  0.247224394284  0.041840000000
CC321 HGPAM3  1  0.246778944925  0.045833423612
CC321 HGR51  1  0.290272620344  0.072469005789
CC321 HGR52  1  0.249451641079  0.089736802707
CC321 HGR53  1  0.231633666716  0.089736802707
CC321 HGR61  1  0.290272620344  0.072469005789
CC321 HGR62  1  0.267269615442  0.089736802707
CC321 HGR63  1  0.249451641079  0.089736802707
CC321 HGR71  1  0.290272620344  0.072469005789
CC321 HGTIP3  1  0.189271432669  0.089736802707
CC321 CG1T1  1  0.333196120584  0.170981810495
CC321 CG1T2  1  0.346782326036  0.134409982486
CC321 CG1N1  1  0.335868816739  0.177512086349
CC321 CG2D1  1  0.355468588538  0.109105371453
CC321 CG2D2  1  0.354577689820  0.105847757841
CC321 CG2D1O  1  0.355468588538  0.109105371453
CC321 CG2D2O  1  0.355468588538  0.109105371453
CC321 CG2DC1  1  0.355468588538  0.109105371453
CC321 CG2DC2  1  0.355468588538  0.109105371453
CC321 CG2DC3  1  0.354577689820  0.105847757841
CC321 CG2N1  1  0.347450500075  0.138767581228
CC321 CG2N2  1  0.347450500075  0.138767581228
CC321 CG2O1  1  0.347450500075  0.138767581228
CC321 CG2O2  1  0.320723538531  0.130979917850
CC321 CG2O3  1  0.347450500075  0.110698234855
CC321 CG2O4  1  0.329632525712  0.102486650838
CC321 CG2O5  1  0.347450500075  0.125520000000
CC321 CG2O6  1  0.347450500075  0.110698234855
CC321 CG2O7  1  0.308518226092  0.100764063435
CC321 CG2R51  1  0.356359487256  0.093557084179
CC321 CG2R52  1  0.365268474438  0.059170695450
CC321 CG2R53  1  0.365268474438  0.059170695450
CC321 CG2R57  1  0.356359487256  0.093557084179
CC321 CG25C1  1  0.355468588538  0.109105371453
CC321 CG25C2  1  0.355468588538  0.109105371453
CC321 CG251O  1  0.355468588538  0.109105371453
CC321 CG252O  1  0.355468588538  0.109105371453
CC321 CG2R61  1  0.346773417049  0.110698234855
CC321 CG2R62  1  0.338541512893  0.125520000000
CC321 CG2R63  1  0.338541512893  0.132309697301
CC321 CG2R64  1  0.356359487256  0.083680000000
CC321 CG2R66  1  0.338541512893  0.110698234855
CC321 CG2R67  1  0.346773417049  0.110698234855
CC321 CG2RC0  1  0.334977918021  0.131646486622
CC321 CG2R71  1  0.346987232741  0.108300154755
CC321 CG2RC7  1  0.334977918021  0.131646486622
CC321 CG301  1  0.338541512893  0.041840000000
CC321 CG302  1  0.374177461619  0.059170695450
CC321 CG311  1  0.338541512893  0.041840000000
CC321 CG312  1  0.351904993665  0.085746484010
CC321 CG314  1  0.338541512893  0.041840000000
CC321 CG321  1  0.338541512893  0.041840000000
CC321 CG322  1  0.338541512893  0.102486650838
CC321 CG323  1  0.365268474438  0.138767581228
CC321 CG324  1  0.338541512893  0.041840000000
CC321 CG331  1  0.338541512893  0.041840000000
CC321 CG334  1  0.338541512893  0.041840000000
CC321 CG3C50  1  0.338541512893  0.041840000000
CC321 CG3C51  1  0.338541512893  0.041840000000
CC321 CG3C52  1  0.338541512893  0.041840000000
CC321 CG3C53  1  0.338541512893  0.041840000000
CC321 CG3C54  1  0.338541512893  0.041840000000
CC321 CG3C31  1  0.338541512893  0.041840000000
CC321 CG3C41  1  0.338541512893  0.041840000000
CC321 CG3RC1  1  0.338541512893  0.041840000000
CC321 CG3AM0  1  0.344777803920  0.110698234855
CC321 CG3AM1  1  0.345668702638  0.116852760686
CC321 CG3AM2  1  0.346559601357  0.118341390899
CC321 NG1T1  1  0.328741626994  0.177512086349
CC321 NG2D1  1  0.334087019303  0.187114168357
CC321 NG2S0  1  0.334087019303  0.004184000000
CC321 NG2S1  1  0.307360057758  0.187114168357
CC321 NG2S2  1  0.334087019303  0.187114168357
CC321 NG2S3  1  0.334087019303  0.187114168357
CC321 NG2O1  1  0.334087019303  0.187114168357
CC321 NG2P1  1  0.334087019303  0.187114168357
CC321 NG2R43  1  0.334087019303  0.187114168357
CC321 NG2R50  1  0.334087019303  0.187114168357
CC321 NG2R51  1  0.334087019303  0.187114168357
CC321 NG2R52  1  0.334087019303  0.187114168357
CC321 NG2R53  1  0.334087019303  0.187114168357
CC321 NG2R57  1  0.334087019303  0.187114168357
CC321 NG2R60  1  0.337650614175  0.102486650838
CC321 NG2R61  1  0.334087019303  0.187114168357
CC321 NG2R62  1  0.352795892384  0.093557084179
CC321 NG2R67  1  0.334087019303  0.187114168357
CC321 NG2RC0  1  0.334087019303  0.187114168357
CC321 NG301  1  0.347450500075  0.078275472531
CC321 NG311  1  0.347450500075  0.088756043175
CC321 NG321  1  0.346559601357  0.102486650838
CC321 NG331  1  0.345668702638  0.110698234855
CC321 NG3C51  1  0.334087019303  0.187114168357
CC321 NG3N1  1  0.351904993665  0.102486650838
CC321 NG3P0  1  0.334087019303  0.187114168357
CC321 NG3P1  1  0.334087019303  0.187114168357
CC321 NG3P2  1  0.334087019303  0.187114168357
CC321 NG3P3  1  0.334087019303  0.187114168357
CC321 OG2D1  1  0.293996576986  0.144938011577
CC321 OG2D2  1  0.320723538531  0.144938011577
CC321 OG2D3  1  0.293996576986  0.144938011577
CC321 OG2D4  1  0.320723538531  0.144938011577
CC321 OG2D5  1  0.320010819556  0.169954883425
CC321 OG2N1  1  0.320723538531  0.144938011577
CC321 OG2P1  1  0.320723538531  0.144938011577
CC321 OG2R50  1  0.320723538531  0.144938011577
CC321 OG3R60  1  0.316269044940  0.132309697301
CC321 OG301  1  0.316269044940  0.132309697301
CC321 OG302  1  0.316269044940  0.132309697301
CC321 OG303  1  0.316269044940  0.132309697301
CC321 OG304  1  0.316269044940  0.132309697301
CC321 OG311  1  0.326514380198  0.183381431383
CC321 OG312  1  0.325178032121  0.144938011577
CC321 OG3C31  1  0.316269044940  0.132309697301
CC321 OG3C51  1  0.316269044940  0.132309697301
CC321 OG3C61  1  0.316269044940  0.132309697301
CC321 OGTIP3  1  0.326799467788  0.163176000000
CC321 SG2D1  1  0.351904993665  0.314496560236
CC321 SG2R50  1  0.347450500075  0.280671252536
CC321 SG311  1  0.347450500075  0.280671252536
CC321 SG301  1  0.345223253279  0.257919081884
CC321 SG302  1  0.365268474438  0.286840588481
CC321 SG3O1  1  0.356359487256  0.286840588481
CC321 SG3O2  1  0.347450500075  0.247528778125
CC321 SG3O3  1  0.347450500075  0.247528778125
CC321  FGA1  1  0.314487247504  0.153729976257
CC321  FGA2  1  0.314487247504  0.135577095411
CC321  FGA3  1  0.311814551349  0.130309939452
CC321  FGP1  1  0.311814551349  0.130309939452
CC321  FGR1  1  0.320723538531  0.144938011577
CC321 CLGA1  1  0.339432411611  0.245040988571
CC321 CLGA3  1  0.339432411611  0.232955260941
CC321 BRGA1  1  0.344777803920  0.289876023155
CC321 BRGA2  1  0.351904993665  0.304599797767
CC321 BRGA3  1  0.347450500075  0.307459952514
CC321   SOD  1  0.294954293108  0.090610410351
CC321   CLA  1  0.371504765465  0.162045623205
CC321   PG0  1  0.360813980847  0.320014464673
CC321   PG1  1  0.360813980847  0.320014464673
CC321   PG2  1  0.360813980847  0.320014464673
CC321  ALG1  1  0.347450500075  0.337324864189
CC321   LPH  1  0.169270756447  0.000000000000
CC321 CLGR1  1  0.334977918021  0.200657590935
CC321 BRGR1  1  0.345668702638  0.236682781799
CC321  IGR1  1  0.368832069310  0.301712530731
CC321 SG2P1  1  0.355798221064  0.332305491450
CC321 OG2S1  1  0.318906105146  0.157831660601
CC321 SG2P2  1  0.352314807076  0.329421919951
CC321 SEGD1  1  0.363041227642  0.330244580395
CC321 BG201  1  0.396449929572  0.081561175077
CC321 CC301  1  0.338541512893  0.041840000000
CC321 CC3062  1  0.338541512893  0.041840000000
CC321 CC311  1  0.338541512893  0.041840000000
CC321 CC3161  1  0.338541512893  0.041840000000
CC321 CC3162  1  0.338541512893  0.041840000000
CC321 CC3163  1  0.338541512893  0.041840000000
CC321 CC321  1  0.338541512893  0.041840000000
CC321 CC3261  1  0.338541512893  0.041840000000
CC321 CC3263  1  0.338541512893  0.041840000000
CC321 CC331  1  0.338541512893  0.041840000000
CC321 CC2O1  1  0.347450500075  0.138767581228
CC321 CC2O2  1  0.347450500075  0.110698234855
CC321 CC2O3  1  0.347450500075  0.125520000000
CC321 CC2O4  1  0.329632525712  0.102486650838
CC321 CC2O5  1  0.320723538531  0.130979917850
CC321 OC2D1  1  0.293996576986  0.144938011577
CC321 OC2D2  1  0.320723538531  0.144938011577
CC321 OC2D3  1  0.293996576986  0.144938011577
CC321 OC2D4  1  0.293996576986  0.144938011577
CC321 OC3C61  1  0.316269044940  0.132309697301
CC321 OC311  1  0.326514380198  0.183381431383
CC321 NC2D1  1  0.307360057758  0.187114168357
CC321  HCP1  1  0.189271432669  0.089736802707
CC321  HCA1  1  0.288651184677  0.088756043175
CC321  HCA2  1  0.288651184677  0.078275472531
CC321  HCA3  1  0.288651184677  0.064818249282
CC321 CC312  1  0.338541512893  0.041840000000
CC321 CC322  1  0.338541512893  0.041840000000
CC321  HCR1  1  0.240542653898  0.089736802707
CC321 HCA3M  1  0.288651184677  0.064818249282
CC321 CC321C  1  0.338541512893  0.041840000000
CC321 CC321D  1  0.338541512893  0.041840000000
CC321 CC311C  1  0.338541512893  0.041840000000
CC321 CC311D  1  0.338541512893  0.041840000000
CC321 OC301  1  0.316269044940  0.132309697301
CC321 OC302  1  0.316269044940  0.132309697301
CC321 HCP1M  1  0.189271432669  0.089736802707
CC321 OC311M  1  0.326514380198  0.183381431383
CC321 OC3C5M  1  0.316269044940  0.132309697301
CC321 CC322C  1  0.338541512893  0.041840000000
CC321 HCA2C2  1  0.285087589805  0.078275472531
CC321 CC312C  1  0.338541512893  0.041840000000
CC321 HCA1C2  1  0.288651184677  0.088756043175
CC321 OC3C51  1  0.316269044940  0.132309697301
CC321 CC3152  1  0.338541512893  0.041840000000
CC321 CC3051  1  0.338541512893  0.041840000000
CC321 CC3251  1  0.338541512893  0.041840000000
CC321 CC3151  1  0.338541512893  0.041840000000
CC321 CC3153  1  0.338541512893  0.041840000000
CC321 OC2DP  1  0.320723538531  0.144938011577
CC321 OC312  1  0.326959829558  0.163176000000
CC321 OC30P  1  0.326959829558  0.163176000000
CC321    PC  1  0.360813980847  0.320014464673
CC321    SC  1  0.356359487256  0.286840588481
CC321 CC312D  1  0.338541512893  0.041840000000
CC321 OC303  1  0.316269044940  0.132309697301
CC321 NC311  1  0.347450500075  0.088756043175
CC321   HN1  1  0.189271432669  0.089736802707
CC321   HN2  1  0.189271432669  0.089736802707
CC321   HN3  1  0.267269615442  0.089736802707
CC321   HN4  1  0.189271432669  0.089736802707
CC321   HN5  1  0.189271432669  0.089736802707
CC321   HN6  1  0.286869387241  0.062058748940
CC321   HN7  1  0.286869387241  0.062058748940
CC321   HN8  1  0.288651184677  0.070011711020
CC321   HN9  1  0.288651184677  0.064818249282
CC321   NN1  1  0.334087019303  0.187114168357
CC321   NN2  1  0.334087019303  0.187114168357
CC321  NN2B  1  0.334087019303  0.187114168357
CC321  NN2G  1  0.334087019303  0.187114168357
CC321  NN2U  1  0.334087019303  0.187114168357
CC321   NN3  1  0.334087019303  0.187114168357
CC321  NN3A  1  0.334087019303  0.187114168357
CC321  NN3G  1  0.334087019303  0.187114168357
CC321   NN4  1  0.334087019303  0.187114168357
CC321   NN6  1  0.334087019303  0.187114168357
CC321   ON1  1  0.320723538531  0.144938011577
CC321  ON1C  1  0.320723538531  0.144938011577
CC321   ON2  1  0.326959829558  0.163176000000
CC321   ON3  1  0.320723538531  0.144938011577
CC321   ON4  1  0.326959829558  0.163176000000
CC321   ON5  1  0.326959829558  0.163176000000
CC321   ON6  1  0.326959829558  0.163176000000
CC321  ON6B  1  0.326959829558  0.163176000000
CC321   CN1  1  0.338541512893  0.132309697301
CC321  CN1T  1  0.338541512893  0.132309697301
CC321   CN2  1  0.338541512893  0.132309697301
CC321   CN3  1  0.338541512893  0.125520000000
CC321  CN3T  1  0.338541512893  0.125520000000
CC321   CN4  1  0.338541512893  0.114583559030
CC321   CN5  1  0.338541512893  0.114583559030
CC321  CN5G  1  0.338541512893  0.114583559030
CC321   CN7  1  0.338541512893  0.041840000000
CC321  CN7B  1  0.338541512893  0.041840000000
CC321   CN8  1  0.338541512893  0.041840000000
CC321  CN8B  1  0.338541512893  0.041840000000
CC321   CN9  1  0.338541512893  0.041840000000
CC321     P  1  0.360813980847  0.320014464673
CC321    P2  1  0.360813980847  0.320014464673
CC321    P3  1  0.360813980847  0.320014464673
CC321    P4  1  0.360813980847  0.320014464673
CC321   HOL  1  0.189271432669  0.089736802707
CC321  HAL1  1  0.286869387241  0.062058748940
CC321  HAL2  1  0.288651184677  0.070011711020
CC321  HAL3  1  0.288651184677  0.064818249282
CC321   HBL  1  0.286869387241  0.062058748940
CC321   HCL  1  0.189271432669  0.089736802707
CC321    HL  1  0.231633666716  0.089736802707
CC321  HEL1  1  0.280633096214  0.073666921749
CC321  HEL2  1  0.281523994932  0.067464972838
CC321    CL  1  0.347450500075  0.110698234855
CC321   CCL  1  0.347450500075  0.110698234855
CC321  CTL1  1  0.338541512893  0.041840000000
CC321  CTL2  1  0.338541512893  0.041840000000
CC321  CTL3  1  0.338541512893  0.041840000000
CC321  CTL5  1  0.338541512893  0.041840000000
CC321  CEL1  1  0.355468588538  0.109105371453
CC321  CEL2  1  0.354577689820  0.105847757841
CC321  CRL1  1  0.338541512893  0.041840000000
CC321  CRL2  1  0.338541512893  0.041840000000
CC321   OBL  1  0.293996576986  0.144938011577
CC321   OCL  1  0.320723538531  0.144938011577
CC321   O2L  1  0.320723538531  0.144938011577
CC321   OHL  1  0.326959829558  0.163176000000
CC321   OSL  1  0.316269044940  0.132309697301
CC321  OSLP  1  0.316269044940  0.132309697301
CC321  NH3L  1  0.334087019303  0.187114168357
CC321   NTL  1  0.334087019303  0.187114168357
CC321    SL  1  0.356359487256  0.286840588481
CC321    PL  1  0.360813980847  0.320014464673
CC321 HCA1A  1  0.288651184677  0.088756043175
CC321 HCA2A  1  0.288651184677  0.078275472531
CC321 HCA3A  1  0.288651184677  0.064818249282
CC321 CC30A  1  0.338541512893  0.041840000000
CC321 CC31A  1  0.338541512893  0.041840000000
CC321 CC32A  1  0.338541512893  0.041840000000
CC321 CC33A  1  0.338541512893  0.041840000000
CC321 CC326A  1  0.338541512893  0.041840000000
CC321 HCA25A  1  0.285087589805  0.078275472531
CC321 CC325A  1  0.338541512893  0.041840000000
CC321 CC325B  1  0.338541512893  0.041840000000
CC321 OC305A  1  0.316269044940  0.132309697301
CC321 OC30A  1  0.316269044940  0.132309697301
CC321  HSIO  1  0.189271432669  0.089736802707
CC321  HSIA  1  0.286869387241  0.062058748940
CC321   HAL  1  0.286869387241  0.062058748940
CC321    AL  1  0.365268474438  0.337324864189
CC321    SI  1  0.365268474438  0.324091246411
CC321  SIH3  1  0.365268474438  0.324091246411
CC321  OSIH  1  0.326959829558  0.163176000000
CC321  OSIE  1  0.326959829558  0.163176000000
CC321  OSIA  1  0.326959829558  0.163176000000
CC321   OAL  1  0.326959829558  0.163176000000
CC321    HT  1  0.189271432669  0.089736802707
CC321    OT  1  0.326799467788  0.163176000000
CC321   DUM  1  0.169270756447  0.000000000000
CC321    CM  1  0.356359487256  0.138767581228
CC321   CPA  1  0.329632525712  0.125520000000
CC321   CPB  1  0.329632525712  0.125520000000
CC321   CPM  1  0.329632525712  0.125520000000
CC321   CST  1  0.308518226092  0.100764063435
CC321  CT1X  1  0.338541512893  0.041840000000
CC321  CT2X  1  0.338541512893  0.041840000000
CC321  CT3X  1  0.338541512893  0.041840000000
CC321    HB  1  0.286869387241  0.062058748940
CC321   NPH  1  0.334087019303  0.187114168357
CC321    OM  1  0.320723538531  0.144938011577
CC321   OST  1  0.320010819556  0.169954883425
CC321   POT  1  0.326403017859  0.123410269913
CC321   CAL  1  0.291056611216  0.144938011577
CC321    MG  1  0.274842254546  0.051243325419
CC321   CES  1  0.356359487256  0.182376331798
CC321    ZN  1  0.266378716724  0.209200000000
CC321    FE  1  0.227179173126  0.000000000000
CC321    HE  1  0.301123766731  0.061020452073
CC321    NE  1  0.305578260322  0.122698965603
CC321  CLAL  1  0.339272049842  0.072469005789
CC321    AG  1  0.300901042052  0.893457908130
CC321    AU  1  0.300722862308  0.962320000000
CC321    CU  1  0.285800308779  0.908997471504
CC321    NI  1  0.282949432881  0.994525446633
CC321    PB  1  0.328073452955  0.716185437439
CC321    PD  1  0.294842930769  1.037598257516
CC321    PT  1  0.296001099102  1.168527606863
CC321   CAP  1  0.346773417049  0.110698234855
CC321    FA  1  0.320723538531  0.144938011577
CC321    CN  1  0.325178032121  0.187114168357
CC321    NC  1  0.334087019303  0.324091246411
CC321   OCA  1  0.293996576986  0.144938011577
CC321   COA  1  0.347450500075  0.138767581228
CC321   CF1  1  0.338541512893  0.102486650838
CC321   CF2  1  0.351904993665  0.085746484010
CC321   CF3  1  0.374177461619  0.059170695450
CC321   HF1  1  0.286869387241  0.070011711020
CC321   HF2  1  0.285087589805  0.072469005789
CC321    F1  1  0.314487247504  0.153729976257
CC321    F2  1  0.314487247504  0.135577095411
CC321    F3  1  0.311814551349  0.130309939452
CC321    OX  1  0.320723538531  0.144938011577
CC321    HX  1  0.189271432669  0.089736802707
CC321  HPER  1  0.189271432669  0.089736802707
CC321  OPER  1  0.318427692534  0.188901923946
CC321   LIT  1  0.284864865125  0.020196198771
CC321   RUB  1  0.338541512893  0.162045623205
CC321   BAR  1  0.337650614175  0.162045623205
CC321   CAD  1  0.290165712498  0.144938011577
CC321  ON2B  1  0.326959829558  0.163176000000
CC321    SP  1  0.365268474438  0.280671252536
CC321   HNP  1  0.290272620344  0.072469005789
CC321  HNE1  1  0.280633096214  0.073666921749
CC321  HNE2  1  0.281523994932  0.067464972838
CC321  CN3D  1  0.338541512893  0.125520000000
CC321  CNE1  1  0.355468588538  0.109105371453
CC321  CNE2  1  0.354577689820  0.105847757841
CC321   CNA  1  0.346773417049  0.110698234855
CC321  CNA2  1  0.338541512893  0.110698234855
CC321   CNG  1  0.347450500075  0.138767581228
CC321  NN1C  1  0.334087019303  0.187114168357
CC321  NN2C  1  0.334087019303  0.187114168357
CC321  NN3I  1  0.334087019303  0.187114168357
CC321   NNG  1  0.334087019303  0.187114168357
CC321   FNA  1  0.320723538531  0.144938011577
CC321  ON2M  1  0.316269044940  0.132309697301
CC321   CN6  1  0.338541512893  0.041840000000
CC321  CN7E  1  0.338541512893  0.041840000000
CC321  CT2P  1  0.338541512893  0.041840000000
CC321  CTD1  1  0.338541512893  0.041840000000
CC321  CPD1  1  0.338541512893  0.041840000000
CC321  CC1A  1  0.355468588538  0.109105371453
CC321  CC1B  1  0.355468588538  0.109105371453
CC321   CC2  1  0.354577689820  0.105847757841
CC321   NS1  1  0.334087019303  0.187114168357
CC321   NS2  1  0.334087019303  0.187114168357
CC321   NHL  1  0.307360057758  0.187114168357
CC321  CTO1  1  0.338541512893  0.041840000000
CC321  CEL3  1  0.355468588538  0.109105371453
CC321  CTO2  1  0.338541512893  0.041840000000
CC321  HN3B  1  0.249451641079  0.089736802707
CC321  CN1A  1  0.347450500075  0.110698234855
CC321  CN3A  1  0.329632525712  0.177512086349
CC321  CN3B  1  0.329632525712  0.177512086349
CC321  CN3C  1  0.329632525712  0.177512086349
CC3261     C  1  0.347450500075  0.138767581228
CC3261    CA  1  0.346773417049  0.110698234855
CC3261    CC  1  0.347450500075  0.110698234855
CC3261    CD  1  0.347450500075  0.110698234855
CC3261   CE1  1  0.355468588538  0.109105371453
CC3261   CE2  1  0.354577689820  0.105847757841
CC3261   CP1  1  0.338541512893  0.041840000000
CC3261   CP2  1  0.338541512893  0.041840000000
CC3261   CP3  1  0.338541512893  0.041840000000
CC3261  CPH1  1  0.329632525712  0.093557084179
CC3261  CPH2  1  0.329632525712  0.093557084179
CC3261    CS  1  0.365268474438  0.138767581228
CC3261   CPT  1  0.334977918021  0.131646486622
CC3261    CY  1  0.346559601357  0.113045454929
CC3261   CAI  1  0.346559601357  0.113045454929
CC3261    CT  1  0.338541512893  0.041840000000
CC3261   CT1  1  0.338541512893  0.041840000000
CC3261   CT2  1  0.338541512893  0.041840000000
CC3261  CT2A  1  0.338541512893  0.041840000000
CC3261   CT3  1  0.338541512893  0.041840000000
CC3261    C3  1  0.371950214824  0.059170695450
CC3261     H  1  0.189271432669  0.089736802707
CC3261    HA  1  0.286869387241  0.062058748940
CC3261   HB1  1  0.286869387241  0.062058748940
CC3261   HB2  1  0.288651184677  0.070011711020
CC3261   HE1  1  0.280633096214  0.073666921749
CC3261   HE2  1  0.281523994932  0.067464972838
CC3261    HC  1  0.189271432669  0.089736802707
CC3261    HP  1  0.290272620344  0.072469005789
CC3261   HR1  1  0.249451641079  0.089736802707
CC3261   HR2  1  0.231633666716  0.089736802707
CC3261   HR3  1  0.300054688270  0.036952087465
CC3261    HS  1  0.209361198763  0.132309697301
CC3261   HA1  1  0.288651184677  0.088756043175
CC3261   HA2  1  0.288651184677  0.077149148019
CC3261   HA3  1  0.288651184677  0.064818249282
CC3261     N  1  0.334087019303  0.004184000000
CC3261   NC2  1  0.334087019303  0.187114168357
CC3261   NH1  1  0.307360057758  0.187114168357
CC3261   NH2  1  0.334087019303  0.187114168357
CC3261   NH3  1  0.334087019303  0.187114168357
CC3261    NP  1  0.334087019303  0.187114168357
CC3261   NR1  1  0.334087019303  0.187114168357
CC3261   NR2  1  0.334087019303  0.187114168357
CC3261   NR3  1  0.334087019303  0.187114168357
CC3261    NY  1  0.334087019303  0.187114168357
CC3261     O  1  0.293996576986  0.144938011577
CC3261    OB  1  0.293996576986  0.144938011577
CC3261    OC  1  0.320723538531  0.144938011577
CC3261   OH1  1  0.326959829558  0.163176000000
CC3261    OS  1  0.326959829558  0.163176000000
CC3261     S  1  0.347450500075  0.280671252536
CC3261    SM  1  0.345223253279  0.257919081884
CC3261    SS  1  0.365268474438  0.286840588481
CC3261  HGA1  1  0.288651184677  0.088756043175
CC3261  HGA2  1  0.288651184677  0.078275472531
CC3261  HGA3  1  0.288651184677  0.064818249282
CC3261  HGA4  1  0.280633096214  0.073666921749
CC3261  HGA5  1  0.281523994932  0.067464972838
CC3261  HGA6  1  0.286869387241  0.070011711020
CC3261  HGA7  1  0.285087589805  0.072469005789
CC3261 HGAAM0  1  0.283305792369  0.070011711020
CC3261 HGAAM1  1  0.283305792369  0.070011711020
CC3261 HGAAM2  1  0.281523994932  0.083680000000
CC3261  HGP1  1  0.189271432669  0.089736802707
CC3261  HGP2  1  0.189271432669  0.089736802707
CC3261  HGP3  1  0.209361198763  0.132309697301
CC3261  HGP4  1  0.189271432669  0.089736802707
CC3261  HGP5  1  0.231633666716  0.089736802707
CC3261 HGPAM1  1  0.247224394284  0.039692909190
CC3261 HGPAM2  1  0.247224394284  0.041840000000
CC3261 HGPAM3  1  0.246778944925  0.045833423612
CC3261 HGR51  1  0.290272620344  0.072469005789
CC3261 HGR52  1  0.249451641079  0.089736802707
CC3261 HGR53  1  0.231633666716  0.089736802707
CC3261 HGR61  1  0.290272620344  0.072469005789
CC3261 HGR62  1  0.267269615442  0.089736802707
CC3261 HGR63  1  0.249451641079  0.089736802707
CC3261 HGR71  1  0.290272620344  0.072469005789
CC3261 HGTIP3  1  0.189271432669  0.089736802707
CC3261 CG1T1  1  0.333196120584  0.170981810495
CC3261 CG1T2  1  0.346782326036  0.134409982486
CC3261 CG1N1  1  0.335868816739  0.177512086349
CC3261 CG2D1  1  0.355468588538  0.109105371453
CC3261 CG2D2  1  0.354577689820  0.105847757841
CC3261 CG2D1O  1  0.355468588538  0.109105371453
CC3261 CG2D2O  1  0.355468588538  0.109105371453
CC3261 CG2DC1  1  0.355468588538  0.109105371453
CC3261 CG2DC2  1  0.355468588538  0.109105371453
CC3261 CG2DC3  1  0.354577689820  0.105847757841
CC3261 CG2N1  1  0.347450500075  0.138767581228
CC3261 CG2N2  1  0.347450500075  0.138767581228
CC3261 CG2O1  1  0.347450500075  0.138767581228
CC3261 CG2O2  1  0.320723538531  0.130979917850
CC3261 CG2O3  1  0.347450500075  0.110698234855
CC3261 CG2O4  1  0.329632525712  0.102486650838
CC3261 CG2O5  1  0.347450500075  0.125520000000
CC3261 CG2O6  1  0.347450500075  0.110698234855
CC3261 CG2O7  1  0.308518226092  0.100764063435
CC3261 CG2R51  1  0.356359487256  0.093557084179
CC3261 CG2R52  1  0.365268474438  0.059170695450
CC3261 CG2R53  1  0.365268474438  0.059170695450
CC3261 CG2R57  1  0.356359487256  0.093557084179
CC3261 CG25C1  1  0.355468588538  0.109105371453
CC3261 CG25C2  1  0.355468588538  0.109105371453
CC3261 CG251O  1  0.355468588538  0.109105371453
CC3261 CG252O  1  0.355468588538  0.109105371453
CC3261 CG2R61  1  0.346773417049  0.110698234855
CC3261 CG2R62  1  0.338541512893  0.125520000000
CC3261 CG2R63  1  0.338541512893  0.132309697301
CC3261 CG2R64  1  0.356359487256  0.083680000000
CC3261 CG2R66  1  0.338541512893  0.110698234855
CC3261 CG2R67  1  0.346773417049  0.110698234855
CC3261 CG2RC0  1  0.334977918021  0.131646486622
CC3261 CG2R71  1  0.346987232741  0.108300154755
CC3261 CG2RC7  1  0.334977918021  0.131646486622
CC3261 CG301  1  0.338541512893  0.041840000000
CC3261 CG302  1  0.374177461619  0.059170695450
CC3261 CG311  1  0.338541512893  0.041840000000
CC3261 CG312  1  0.351904993665  0.085746484010
CC3261 CG314  1  0.338541512893  0.041840000000
CC3261 CG321  1  0.338541512893  0.041840000000
CC3261 CG322  1  0.338541512893  0.102486650838
CC3261 CG323  1  0.365268474438  0.138767581228
CC3261 CG324  1  0.338541512893  0.041840000000
CC3261 CG331  1  0.338541512893  0.041840000000
CC3261 CG334  1  0.338541512893  0.041840000000
CC3261 CG3C50  1  0.338541512893  0.041840000000
CC3261 CG3C51  1  0.338541512893  0.041840000000
CC3261 CG3C52  1  0.338541512893  0.041840000000
CC3261 CG3C53  1  0.338541512893  0.041840000000
CC3261 CG3C54  1  0.338541512893  0.041840000000
CC3261 CG3C31  1  0.338541512893  0.041840000000
CC3261 CG3C41  1  0.338541512893  0.041840000000
CC3261 CG3RC1  1  0.338541512893  0.041840000000
CC3261 CG3AM0  1  0.344777803920  0.110698234855
CC3261 CG3AM1  1  0.345668702638  0.116852760686
CC3261 CG3AM2  1  0.346559601357  0.118341390899
CC3261 NG1T1  1  0.328741626994  0.177512086349
CC3261 NG2D1  1  0.334087019303  0.187114168357
CC3261 NG2S0  1  0.334087019303  0.004184000000
CC3261 NG2S1  1  0.307360057758  0.187114168357
CC3261 NG2S2  1  0.334087019303  0.187114168357
CC3261 NG2S3  1  0.334087019303  0.187114168357
CC3261 NG2O1  1  0.334087019303  0.187114168357
CC3261 NG2P1  1  0.334087019303  0.187114168357
CC3261 NG2R43  1  0.334087019303  0.187114168357
CC3261 NG2R50  1  0.334087019303  0.187114168357
CC3261 NG2R51  1  0.334087019303  0.187114168357
CC3261 NG2R52  1  0.334087019303  0.187114168357
CC3261 NG2R53  1  0.334087019303  0.187114168357
CC3261 NG2R57  1  0.334087019303  0.187114168357
CC3261 NG2R60  1  0.337650614175  0.102486650838
CC3261 NG2R61  1  0.334087019303  0.187114168357
CC3261 NG2R62  1  0.352795892384  0.093557084179
CC3261 NG2R67  1  0.334087019303  0.187114168357
CC3261 NG2RC0  1  0.334087019303  0.187114168357
CC3261 NG301  1  0.347450500075  0.078275472531
CC3261 NG311  1  0.347450500075  0.088756043175
CC3261 NG321  1  0.346559601357  0.102486650838
CC3261 NG331  1  0.345668702638  0.110698234855
CC3261 NG3C51  1  0.334087019303  0.187114168357
CC3261 NG3N1  1  0.351904993665  0.102486650838
CC3261 NG3P0  1  0.334087019303  0.187114168357
CC3261 NG3P1  1  0.334087019303  0.187114168357
CC3261 NG3P2  1  0.334087019303  0.187114168357
CC3261 NG3P3  1  0.334087019303  0.187114168357
CC3261 OG2D1  1  0.293996576986  0.144938011577
CC3261 OG2D2  1  0.320723538531  0.144938011577
CC3261 OG2D3  1  0.293996576986  0.144938011577
CC3261 OG2D4  1  0.320723538531  0.144938011577
CC3261 OG2D5  1  0.320010819556  0.169954883425
CC3261 OG2N1  1  0.320723538531  0.144938011577
CC3261 OG2P1  1  0.320723538531  0.144938011577
CC3261 OG2R50  1  0.320723538531  0.144938011577
CC3261 OG3R60  1  0.316269044940  0.132309697301
CC3261 OG301  1  0.316269044940  0.132309697301
CC3261 OG302  1  0.316269044940  0.132309697301
CC3261 OG303  1  0.316269044940  0.132309697301
CC3261 OG304  1  0.316269044940  0.132309697301
CC3261 OG311  1  0.326514380198  0.183381431383
CC3261 OG312  1  0.325178032121  0.144938011577
CC3261 OG3C31  1  0.316269044940  0.132309697301
CC3261 OG3C51  1  0.316269044940  0.132309697301
CC3261 OG3C61  1  0.316269044940  0.132309697301
CC3261 OGTIP3  1  0.326799467788  0.163176000000
CC3261 SG2D1  1  0.351904993665  0.314496560236
CC3261 SG2R50  1  0.347450500075  0.280671252536
CC3261 SG311  1  0.347450500075  0.280671252536
CC3261 SG301  1  0.345223253279  0.257919081884
CC3261 SG302  1  0.365268474438  0.286840588481
CC3261 SG3O1  1  0.356359487256  0.286840588481
CC3261 SG3O2  1  0.347450500075  0.247528778125
CC3261 SG3O3  1  0.347450500075  0.247528778125
CC3261  FGA1  1  0.314487247504  0.153729976257
CC3261  FGA2  1  0.314487247504  0.135577095411
CC3261  FGA3  1  0.311814551349  0.130309939452
CC3261  FGP1  1  0.311814551349  0.130309939452
CC3261  FGR1  1  0.320723538531  0.144938011577
CC3261 CLGA1  1  0.339432411611  0.245040988571
CC3261 CLGA3  1  0.339432411611  0.232955260941
CC3261 BRGA1  1  0.344777803920  0.289876023155
CC3261 BRGA2  1  0.351904993665  0.304599797767
CC3261 BRGA3  1  0.347450500075  0.307459952514
CC3261   SOD  1  0.294954293108  0.090610410351
CC3261   CLA  1  0.371504765465  0.162045623205
CC3261   PG0  1  0.360813980847  0.320014464673
CC3261   PG1  1  0.360813980847  0.320014464673
CC3261   PG2  1  0.360813980847  0.320014464673
CC3261  ALG1  1  0.347450500075  0.337324864189
CC3261   LPH  1  0.169270756447  0.000000000000
CC3261 CLGR1  1  0.334977918021  0.200657590935
CC3261 BRGR1  1  0.345668702638  0.236682781799
CC3261  IGR1  1  0.368832069310  0.301712530731
CC3261 SG2P1  1  0.355798221064  0.332305491450
CC3261 OG2S1  1  0.318906105146  0.157831660601
CC3261 SG2P2  1  0.352314807076  0.329421919951
CC3261 SEGD1  1  0.363041227642  0.330244580395
CC3261 BG201  1  0.396449929572  0.081561175077
CC3261 CC301  1  0.338541512893  0.041840000000
CC3261 CC3062  1  0.338541512893  0.041840000000
CC3261 CC311  1  0.338541512893  0.041840000000
CC3261 CC3161  1  0.338541512893  0.041840000000
CC3261 CC3162  1  0.338541512893  0.041840000000
CC3261 CC3163  1  0.338541512893  0.041840000000
CC3261 CC321  1  0.338541512893  0.041840000000
CC3261 CC3261  1  0.338541512893  0.041840000000
CC3261 CC3263  1  0.338541512893  0.041840000000
CC3261 CC331  1  0.338541512893  0.041840000000
CC3261 CC2O1  1  0.347450500075  0.138767581228
CC3261 CC2O2  1  0.347450500075  0.110698234855
CC3261 CC2O3  1  0.347450500075  0.125520000000
CC3261 CC2O4  1  0.329632525712  0.102486650838
CC3261 CC2O5  1  0.320723538531  0.130979917850
CC3261 OC2D1  1  0.293996576986  0.144938011577
CC3261 OC2D2  1  0.320723538531  0.144938011577
CC3261 OC2D3  1  0.293996576986  0.144938011577
CC3261 OC2D4  1  0.293996576986  0.144938011577
CC3261 OC3C61  1  0.316269044940  0.132309697301
CC3261 OC311  1  0.326514380198  0.183381431383
CC3261 NC2D1  1  0.307360057758  0.187114168357
CC3261  HCP1  1  0.189271432669  0.089736802707
CC3261  HCA1  1  0.288651184677  0.088756043175
CC3261  HCA2  1  0.288651184677  0.078275472531
CC3261  HCA3  1  0.288651184677  0.064818249282
CC3261 CC312  1  0.338541512893  0.041840000000
CC3261 CC322  1  0.338541512893  0.041840000000
CC3261  HCR1  1  0.240542653898  0.089736802707
CC3261 HCA3M  1  0.288651184677  0.064818249282
CC3261 CC321C  1  0.338541512893  0.041840000000
CC3261 CC321D  1  0.338541512893  0.041840000000
CC3261 CC311C  1  0.338541512893  0.041840000000
CC3261 CC311D  1  0.338541512893  0.041840000000
CC3261 OC301  1  0.316269044940  0.132309697301
CC3261 OC302  1  0.316269044940  0.132309697301
CC3261 HCP1M  1  0.189271432669  0.089736802707
CC3261 OC311M  1  0.326514380198  0.183381431383
CC3261 OC3C5M  1  0.316269044940  0.132309697301
CC3261 CC322C  1  0.338541512893  0.041840000000
CC3261 HCA2C2  1  0.285087589805  0.078275472531
CC3261 CC312C  1  0.338541512893  0.041840000000
CC3261 HCA1C2  1  0.288651184677  0.088756043175
CC3261 OC3C51  1  0.316269044940  0.132309697301
CC3261 CC3152  1  0.338541512893  0.041840000000
CC3261 CC3051  1  0.338541512893  0.041840000000
CC3261 CC3251  1  0.338541512893  0.041840000000
CC3261 CC3151  1  0.338541512893  0.041840000000
CC3261 CC3153  1  0.338541512893  0.041840000000
CC3261 OC2DP  1  0.320723538531  0.144938011577
CC3261 OC312  1  0.326959829558  0.163176000000
CC3261 OC30P  1  0.326959829558  0.163176000000
CC3261    PC  1  0.360813980847  0.320014464673
CC3261    SC  1  0.356359487256  0.286840588481
CC3261 CC312D  1  0.338541512893  0.041840000000
CC3261 OC303  1  0.316269044940  0.132309697301
CC3261 NC311  1  0.347450500075  0.088756043175
CC3261   HN1  1  0.189271432669  0.089736802707
CC3261   HN2  1  0.189271432669  0.089736802707
CC3261   HN3  1  0.267269615442  0.089736802707
CC3261   HN4  1  0.189271432669  0.089736802707
CC3261   HN5  1  0.189271432669  0.089736802707
CC3261   HN6  1  0.286869387241  0.062058748940
CC3261   HN7  1  0.286869387241  0.062058748940
CC3261   HN8  1  0.288651184677  0.070011711020
CC3261   HN9  1  0.288651184677  0.064818249282
CC3261   NN1  1  0.334087019303  0.187114168357
CC3261   NN2  1  0.334087019303  0.187114168357
CC3261  NN2B  1  0.334087019303  0.187114168357
CC3261  NN2G  1  0.334087019303  0.187114168357
CC3261  NN2U  1  0.334087019303  0.187114168357
CC3261   NN3  1  0.334087019303  0.187114168357
CC3261  NN3A  1  0.334087019303  0.187114168357
CC3261  NN3G  1  0.334087019303  0.187114168357
CC3261   NN4  1  0.334087019303  0.187114168357
CC3261   NN6  1  0.334087019303  0.187114168357
CC3261   ON1  1  0.320723538531  0.144938011577
CC3261  ON1C  1  0.320723538531  0.144938011577
CC3261   ON2  1  0.326959829558  0.163176000000
CC3261   ON3  1  0.320723538531  0.144938011577
CC3261   ON4  1  0.326959829558  0.163176000000
CC3261   ON5  1  0.326959829558  0.163176000000
CC3261   ON6  1  0.326959829558  0.163176000000
CC3261  ON6B  1  0.326959829558  0.163176000000
CC3261   CN1  1  0.338541512893  0.132309697301
CC3261  CN1T  1  0.338541512893  0.132309697301
CC3261   CN2  1  0.338541512893  0.132309697301
CC3261   CN3  1  0.338541512893  0.125520000000
CC3261  CN3T  1  0.338541512893  0.125520000000
CC3261   CN4  1  0.338541512893  0.114583559030
CC3261   CN5  1  0.338541512893  0.114583559030
CC3261  CN5G  1  0.338541512893  0.114583559030
CC3261   CN7  1  0.338541512893  0.041840000000
CC3261  CN7B  1  0.338541512893  0.041840000000
CC3261   CN8  1  0.338541512893  0.041840000000
CC3261  CN8B  1  0.338541512893  0.041840000000
CC3261   CN9  1  0.338541512893  0.041840000000
CC3261     P  1  0.360813980847  0.320014464673
CC3261    P2  1  0.360813980847  0.320014464673
CC3261    P3  1  0.360813980847  0.320014464673
CC3261    P4  1  0.360813980847  0.320014464673
CC3261   HOL  1  0.189271432669  0.089736802707
CC3261  HAL1  1  0.286869387241  0.062058748940
CC3261  HAL2  1  0.288651184677  0.070011711020
CC3261  HAL3  1  0.288651184677  0.064818249282
CC3261   HBL  1  0.286869387241  0.062058748940
CC3261   HCL  1  0.189271432669  0.089736802707
CC3261    HL  1  0.231633666716  0.089736802707
CC3261  HEL1  1  0.280633096214  0.073666921749
CC3261  HEL2  1  0.281523994932  0.067464972838
CC3261    CL  1  0.347450500075  0.110698234855
CC3261   CCL  1  0.347450500075  0.110698234855
CC3261  CTL1  1  0.338541512893  0.041840000000
CC3261  CTL2  1  0.338541512893  0.041840000000
CC3261  CTL3  1  0.338541512893  0.041840000000
CC3261  CTL5  1  0.338541512893  0.041840000000
CC3261  CEL1  1  0.355468588538  0.109105371453
CC3261  CEL2  1  0.354577689820  0.105847757841
CC3261  CRL1  1  0.338541512893  0.041840000000
CC3261  CRL2  1  0.338541512893  0.041840000000
CC3261   OBL  1  0.293996576986  0.144938011577
CC3261   OCL  1  0.320723538531  0.144938011577
CC3261   O2L  1  0.320723538531  0.144938011577
CC3261   OHL  1  0.326959829558  0.163176000000
CC3261   OSL  1  0.316269044940  0.132309697301
CC3261  OSLP  1  0.316269044940  0.132309697301
CC3261  NH3L  1  0.334087019303  0.187114168357
CC3261   NTL  1  0.334087019303  0.187114168357
CC3261    SL  1  0.356359487256  0.286840588481
CC3261    PL  1  0.360813980847  0.320014464673
CC3261 HCA1A  1  0.288651184677  0.088756043175
CC3261 HCA2A  1  0.288651184677  0.078275472531
CC3261 HCA3A  1  0.288651184677  0.064818249282
CC3261 CC30A  1  0.338541512893  0.041840000000
CC3261 CC31A  1  0.338541512893  0.041840000000
CC3261 CC32A  1  0.338541512893  0.041840000000
CC3261 CC33A  1  0.338541512893  0.041840000000
CC3261 CC326A  1  0.338541512893  0.041840000000
CC3261 HCA25A  1  0.285087589805  0.078275472531
CC3261 CC325A  1  0.338541512893  0.041840000000
CC3261 CC325B  1  0.338541512893  0.041840000000
CC3261 OC305A  1  0.316269044940  0.132309697301
CC3261 OC30A  1  0.316269044940  0.132309697301
CC3261  HSIO  1  0.189271432669  0.089736802707
CC3261  HSIA  1  0.286869387241  0.062058748940
CC3261   HAL  1  0.286869387241  0.062058748940
CC3261    AL  1  0.365268474438  0.337324864189
CC3261    SI  1  0.365268474438  0.324091246411
CC3261  SIH3  1  0.365268474438  0.324091246411
CC3261  OSIH  1  0.326959829558  0.163176000000
CC3261  OSIE  1  0.326959829558  0.163176000000
CC3261  OSIA  1  0.326959829558  0.163176000000
CC3261   OAL  1  0.326959829558  0.163176000000
CC3261    HT  1  0.189271432669  0.089736802707
CC3261    OT  1  0.326799467788  0.163176000000
CC3261   DUM  1  0.169270756447  0.000000000000
CC3261    CM  1  0.356359487256  0.138767581228
CC3261   CPA  1  0.329632525712  0.125520000000
CC3261   CPB  1  0.329632525712  0.125520000000
CC3261   CPM  1  0.329632525712  0.125520000000
CC3261   CST  1  0.308518226092  0.100764063435
CC3261  CT1X  1  0.338541512893  0.041840000000
CC3261  CT2X  1  0.338541512893  0.041840000000
CC3261  CT3X  1  0.338541512893  0.041840000000
CC3261    HB  1  0.286869387241  0.062058748940
CC3261   NPH  1  0.334087019303  0.187114168357
CC3261    OM  1  0.320723538531  0.144938011577
CC3261   OST  1  0.320010819556  0.169954883425
CC3261   POT  1  0.326403017859  0.123410269913
CC3261   CAL  1  0.291056611216  0.144938011577
CC3261    MG  1  0.274842254546  0.051243325419
CC3261   CES  1  0.356359487256  0.182376331798
CC3261    ZN  1  0.266378716724  0.209200000000
CC3261    FE  1  0.227179173126  0.000000000000
CC3261    HE  1  0.301123766731  0.061020452073
CC3261    NE  1  0.305578260322  0.122698965603
CC3261  CLAL  1  0.339272049842  0.072469005789
CC3261    AG  1  0.300901042052  0.893457908130
CC3261    AU  1  0.300722862308  0.962320000000
CC3261    CU  1  0.285800308779  0.908997471504
CC3261    NI  1  0.282949432881  0.994525446633
CC3261    PB  1  0.328073452955  0.716185437439
CC3261    PD  1  0.294842930769  1.037598257516
CC3261    PT  1  0.296001099102  1.168527606863
CC3261   CAP  1  0.346773417049  0.110698234855
CC3261    FA  1  0.320723538531  0.144938011577
CC3261    CN  1  0.325178032121  0.187114168357
CC3261    NC  1  0.334087019303  0.324091246411
CC3261   OCA  1  0.293996576986  0.144938011577
CC3261   COA  1  0.347450500075  0.138767581228
CC3261   CF1  1  0.338541512893  0.102486650838
CC3261   CF2  1  0.351904993665  0.085746484010
CC3261   CF3  1  0.374177461619  0.059170695450
CC3261   HF1  1  0.286869387241  0.070011711020
CC3261   HF2  1  0.285087589805  0.072469005789
CC3261    F1  1  0.314487247504  0.153729976257
CC3261    F2  1  0.314487247504  0.135577095411
CC3261    F3  1  0.311814551349  0.130309939452
CC3261    OX  1  0.320723538531  0.144938011577
CC3261    HX  1  0.189271432669  0.089736802707
CC3261  HPER  1  0.189271432669  0.089736802707
CC3261  OPER  1  0.318427692534  0.188901923946
CC3261   LIT  1  0.284864865125  0.020196198771
CC3261   RUB  1  0.338541512893  0.162045623205
CC3261   BAR  1  0.337650614175  0.162045623205
CC3261   CAD  1  0.290165712498  0.144938011577
CC3261  ON2B  1  0.326959829558  0.163176000000
CC3261    SP  1  0.365268474438  0.280671252536
CC3261   HNP  1  0.290272620344  0.072469005789
CC3261  HNE1  1  0.280633096214  0.073666921749
CC3261  HNE2  1  0.281523994932  0.067464972838
CC3261  CN3D  1  0.338541512893  0.125520000000
CC3261  CNE1  1  0.355468588538  0.109105371453
CC3261  CNE2  1  0.354577689820  0.105847757841
CC3261   CNA  1  0.346773417049  0.110698234855
CC3261  CNA2  1  0.338541512893  0.110698234855
CC3261   CNG  1  0.347450500075  0.138767581228
CC3261  NN1C  1  0.334087019303  0.187114168357
CC3261  NN2C  1  0.334087019303  0.187114168357
CC3261  NN3I  1  0.334087019303  0.187114168357
CC3261   NNG  1  0.334087019303  0.187114168357
CC3261   FNA  1  0.320723538531  0.144938011577
CC3261  ON2M  1  0.316269044940  0.132309697301
CC3261   CN6  1  0.338541512893  0.041840000000
CC3261  CN7E  1  0.338541512893  0.041840000000
CC3261  CT2P  1  0.338541512893  0.041840000000
CC3261  CTD1  1  0.338541512893  0.041840000000
CC3261  CPD1  1  0.338541512893  0.041840000000
CC3261  CC1A  1  0.355468588538  0.109105371453
CC3261  CC1B  1  0.355468588538  0.109105371453
CC3261   CC2  1  0.354577689820  0.105847757841
CC3261   NS1  1  0.334087019303  0.187114168357
CC3261   NS2  1  0.334087019303  0.187114168357
CC3261   NHL  1  0.307360057758  0.187114168357
CC3261  CTO1  1  0.338541512893  0.041840000000
CC3261  CEL3  1  0.355468588538  0.109105371453
CC3261  CTO2  1  0.338541512893  0.041840000000
CC3261  HN3B  1  0.249451641079  0.089736802707
CC3261  CN1A  1  0.347450500075  0.110698234855
CC3261  CN3A  1  0.329632525712  0.177512086349
CC3261  CN3B  1  0.329632525712  0.177512086349
CC3261  CN3C  1  0.329632525712  0.177512086349
CC3263     C  1  0.347450500075  0.138767581228
CC3263    CA  1  0.346773417049  0.110698234855
CC3263    CC  1  0.347450500075  0.110698234855
CC3263    CD  1  0.347450500075  0.110698234855
CC3263   CE1  1  0.355468588538  0.109105371453
CC3263   CE2  1  0.354577689820  0.105847757841
CC3263   CP1  1  0.338541512893  0.041840000000
CC3263   CP2  1  0.338541512893  0.041840000000
CC3263   CP3  1  0.338541512893  0.041840000000
CC3263  CPH1  1  0.329632525712  0.093557084179
CC3263  CPH2  1  0.329632525712  0.093557084179
CC3263    CS  1  0.365268474438  0.138767581228
CC3263   CPT  1  0.334977918021  0.131646486622
CC3263    CY  1  0.346559601357  0.113045454929
CC3263   CAI  1  0.346559601357  0.113045454929
CC3263    CT  1  0.338541512893  0.041840000000
CC3263   CT1  1  0.338541512893  0.041840000000
CC3263   CT2  1  0.338541512893  0.041840000000
CC3263  CT2A  1  0.338541512893  0.041840000000
CC3263   CT3  1  0.338541512893  0.041840000000
CC3263    C3  1  0.371950214824  0.059170695450
CC3263     H  1  0.189271432669  0.089736802707
CC3263    HA  1  0.286869387241  0.062058748940
CC3263   HB1  1  0.286869387241  0.062058748940
CC3263   HB2  1  0.288651184677  0.070011711020
CC3263   HE1  1  0.280633096214  0.073666921749
CC3263   HE2  1  0.281523994932  0.067464972838
CC3263    HC  1  0.189271432669  0.089736802707
CC3263    HP  1  0.290272620344  0.072469005789
CC3263   HR1  1  0.249451641079  0.089736802707
CC3263   HR2  1  0.231633666716  0.089736802707
CC3263   HR3  1  0.300054688270  0.036952087465
CC3263    HS  1  0.209361198763  0.132309697301
CC3263   HA1  1  0.288651184677  0.088756043175
CC3263   HA2  1  0.288651184677  0.077149148019
CC3263   HA3  1  0.288651184677  0.064818249282
CC3263     N  1  0.334087019303  0.004184000000
CC3263   NC2  1  0.334087019303  0.187114168357
CC3263   NH1  1  0.307360057758  0.187114168357
CC3263   NH2  1  0.334087019303  0.187114168357
CC3263   NH3  1  0.334087019303  0.187114168357
CC3263    NP  1  0.334087019303  0.187114168357
CC3263   NR1  1  0.334087019303  0.187114168357
CC3263   NR2  1  0.334087019303  0.187114168357
CC3263   NR3  1  0.334087019303  0.187114168357
CC3263    NY  1  0.334087019303  0.187114168357
CC3263     O  1  0.293996576986  0.144938011577
CC3263    OB  1  0.293996576986  0.144938011577
CC3263    OC  1  0.320723538531  0.144938011577
CC3263   OH1  1  0.326959829558  0.163176000000
CC3263    OS  1  0.326959829558  0.163176000000
CC3263     S  1  0.347450500075  0.280671252536
CC3263    SM  1  0.345223253279  0.257919081884
CC3263    SS  1  0.365268474438  0.286840588481
CC3263  HGA1  1  0.288651184677  0.088756043175
CC3263  HGA2  1  0.288651184677  0.078275472531
CC3263  HGA3  1  0.288651184677  0.064818249282
CC3263  HGA4  1  0.280633096214  0.073666921749
CC3263  HGA5  1  0.281523994932  0.067464972838
CC3263  HGA6  1  0.286869387241  0.070011711020
CC3263  HGA7  1  0.285087589805  0.072469005789
CC3263 HGAAM0  1  0.283305792369  0.070011711020
CC3263 HGAAM1  1  0.283305792369  0.070011711020
CC3263 HGAAM2  1  0.281523994932  0.083680000000
CC3263  HGP1  1  0.189271432669  0.089736802707
CC3263  HGP2  1  0.189271432669  0.089736802707
CC3263  HGP3  1  0.209361198763  0.132309697301
CC3263  HGP4  1  0.189271432669  0.089736802707
CC3263  HGP5  1  0.231633666716  0.089736802707
CC3263 HGPAM1  1  0.247224394284  0.039692909190
CC3263 HGPAM2  1  0.247224394284  0.041840000000
CC3263 HGPAM3  1  0.246778944925  0.045833423612
CC3263 HGR51  1  0.290272620344  0.072469005789
CC3263 HGR52  1  0.249451641079  0.089736802707
CC3263 HGR53  1  0.231633666716  0.089736802707
CC3263 HGR61  1  0.290272620344  0.072469005789
CC3263 HGR62  1  0.267269615442  0.089736802707
CC3263 HGR63  1  0.249451641079  0.089736802707
CC3263 HGR71  1  0.290272620344  0.072469005789
CC3263 HGTIP3  1  0.189271432669  0.089736802707
CC3263 CG1T1  1  0.333196120584  0.170981810495
CC3263 CG1T2  1  0.346782326036  0.134409982486
CC3263 CG1N1  1  0.335868816739  0.177512086349
CC3263 CG2D1  1  0.355468588538  0.109105371453
CC3263 CG2D2  1  0.354577689820  0.105847757841
CC3263 CG2D1O  1  0.355468588538  0.109105371453
CC3263 CG2D2O  1  0.355468588538  0.109105371453
CC3263 CG2DC1  1  0.355468588538  0.109105371453
CC3263 CG2DC2  1  0.355468588538  0.109105371453
CC3263 CG2DC3  1  0.354577689820  0.105847757841
CC3263 CG2N1  1  0.347450500075  0.138767581228
CC3263 CG2N2  1  0.347450500075  0.138767581228
CC3263 CG2O1  1  0.347450500075  0.138767581228
CC3263 CG2O2  1  0.320723538531  0.130979917850
CC3263 CG2O3  1  0.347450500075  0.110698234855
CC3263 CG2O4  1  0.329632525712  0.102486650838
CC3263 CG2O5  1  0.347450500075  0.125520000000
CC3263 CG2O6  1  0.347450500075  0.110698234855
CC3263 CG2O7  1  0.308518226092  0.100764063435
CC3263 CG2R51  1  0.356359487256  0.093557084179
CC3263 CG2R52  1  0.365268474438  0.059170695450
CC3263 CG2R53  1  0.365268474438  0.059170695450
CC3263 CG2R57  1  0.356359487256  0.093557084179
CC3263 CG25C1  1  0.355468588538  0.109105371453
CC3263 CG25C2  1  0.355468588538  0.109105371453
CC3263 CG251O  1  0.355468588538  0.109105371453
CC3263 CG252O  1  0.355468588538  0.109105371453
CC3263 CG2R61  1  0.346773417049  0.110698234855
CC3263 CG2R62  1  0.338541512893  0.125520000000
CC3263 CG2R63  1  0.338541512893  0.132309697301
CC3263 CG2R64  1  0.356359487256  0.083680000000
CC3263 CG2R66  1  0.338541512893  0.110698234855
CC3263 CG2R67  1  0.346773417049  0.110698234855
CC3263 CG2RC0  1  0.334977918021  0.131646486622
CC3263 CG2R71  1  0.346987232741  0.108300154755
CC3263 CG2RC7  1  0.334977918021  0.131646486622
CC3263 CG301  1  0.338541512893  0.041840000000
CC3263 CG302  1  0.374177461619  0.059170695450
CC3263 CG311  1  0.338541512893  0.041840000000
CC3263 CG312  1  0.351904993665  0.085746484010
CC3263 CG314  1  0.338541512893  0.041840000000
CC3263 CG321  1  0.338541512893  0.041840000000
CC3263 CG322  1  0.338541512893  0.102486650838
CC3263 CG323  1  0.365268474438  0.138767581228
CC3263 CG324  1  0.338541512893  0.041840000000
CC3263 CG331  1  0.338541512893  0.041840000000
CC3263 CG334  1  0.338541512893  0.041840000000
CC3263 CG3C50  1  0.338541512893  0.041840000000
CC3263 CG3C51  1  0.338541512893  0.041840000000
CC3263 CG3C52  1  0.338541512893  0.041840000000
CC3263 CG3C53  1  0.338541512893  0.041840000000
CC3263 CG3C54  1  0.338541512893  0.041840000000
CC3263 CG3C31  1  0.338541512893  0.041840000000
CC3263 CG3C41  1  0.338541512893  0.041840000000
CC3263 CG3RC1  1  0.338541512893  0.041840000000
CC3263 CG3AM0  1  0.344777803920  0.110698234855
CC3263 CG3AM1  1  0.345668702638  0.116852760686
CC3263 CG3AM2  1  0.346559601357  0.118341390899
CC3263 NG1T1  1  0.328741626994  0.177512086349
CC3263 NG2D1  1  0.334087019303  0.187114168357
CC3263 NG2S0  1  0.334087019303  0.004184000000
CC3263 NG2S1  1  0.307360057758  0.187114168357
CC3263 NG2S2  1  0.334087019303  0.187114168357
CC3263 NG2S3  1  0.334087019303  0.187114168357
CC3263 NG2O1  1  0.334087019303  0.187114168357
CC3263 NG2P1  1  0.334087019303  0.187114168357
CC3263 NG2R43  1  0.334087019303  0.187114168357
CC3263 NG2R50  1  0.334087019303  0.187114168357
CC3263 NG2R51  1  0.334087019303  0.187114168357
CC3263 NG2R52  1  0.334087019303  0.187114168357
CC3263 NG2R53  1  0.334087019303  0.187114168357
CC3263 NG2R57  1  0.334087019303  0.187114168357
CC3263 NG2R60  1  0.337650614175  0.102486650838
CC3263 NG2R61  1  0.334087019303  0.187114168357
CC3263 NG2R62  1  0.352795892384  0.093557084179
CC3263 NG2R67  1  0.334087019303  0.187114168357
CC3263 NG2RC0  1  0.334087019303  0.187114168357
CC3263 NG301  1  0.347450500075  0.078275472531
CC3263 NG311  1  0.347450500075  0.088756043175
CC3263 NG321  1  0.346559601357  0.102486650838
CC3263 NG331  1  0.345668702638  0.110698234855
CC3263 NG3C51  1  0.334087019303  0.187114168357
CC3263 NG3N1  1  0.351904993665  0.102486650838
CC3263 NG3P0  1  0.334087019303  0.187114168357
CC3263 NG3P1  1  0.334087019303  0.187114168357
CC3263 NG3P2  1  0.334087019303  0.187114168357
CC3263 NG3P3  1  0.334087019303  0.187114168357
CC3263 OG2D1  1  0.293996576986  0.144938011577
CC3263 OG2D2  1  0.320723538531  0.144938011577
CC3263 OG2D3  1  0.293996576986  0.144938011577
CC3263 OG2D4  1  0.320723538531  0.144938011577
CC3263 OG2D5  1  0.320010819556  0.169954883425
CC3263 OG2N1  1  0.320723538531  0.144938011577
CC3263 OG2P1  1  0.320723538531  0.144938011577
CC3263 OG2R50  1  0.320723538531  0.144938011577
CC3263 OG3R60  1  0.316269044940  0.132309697301
CC3263 OG301  1  0.316269044940  0.132309697301
CC3263 OG302  1  0.316269044940  0.132309697301
CC3263 OG303  1  0.316269044940  0.132309697301
CC3263 OG304  1  0.316269044940  0.132309697301
CC3263 OG311  1  0.326514380198  0.183381431383
CC3263 OG312  1  0.325178032121  0.144938011577
CC3263 OG3C31  1  0.316269044940  0.132309697301
CC3263 OG3C51  1  0.316269044940  0.132309697301
CC3263 OG3C61  1  0.316269044940  0.132309697301
CC3263 OGTIP3  1  0.326799467788  0.163176000000
CC3263 SG2D1  1  0.351904993665  0.314496560236
CC3263 SG2R50  1  0.347450500075  0.280671252536
CC3263 SG311  1  0.347450500075  0.280671252536
CC3263 SG301  1  0.345223253279  0.257919081884
CC3263 SG302  1  0.365268474438  0.286840588481
CC3263 SG3O1  1  0.356359487256  0.286840588481
CC3263 SG3O2  1  0.347450500075  0.247528778125
CC3263 SG3O3  1  0.347450500075  0.247528778125
CC3263  FGA1  1  0.314487247504  0.153729976257
CC3263  FGA2  1  0.314487247504  0.135577095411
CC3263  FGA3  1  0.311814551349  0.130309939452
CC3263  FGP1  1  0.311814551349  0.130309939452
CC3263  FGR1  1  0.320723538531  0.144938011577
CC3263 CLGA1  1  0.339432411611  0.245040988571
CC3263 CLGA3  1  0.339432411611  0.232955260941
CC3263 BRGA1  1  0.344777803920  0.289876023155
CC3263 BRGA2  1  0.351904993665  0.304599797767
CC3263 BRGA3  1  0.347450500075  0.307459952514
CC3263   SOD  1  0.294954293108  0.090610410351
CC3263   CLA  1  0.371504765465  0.162045623205
CC3263   PG0  1  0.360813980847  0.320014464673
CC3263   PG1  1  0.360813980847  0.320014464673
CC3263   PG2  1  0.360813980847  0.320014464673
CC3263  ALG1  1  0.347450500075  0.337324864189
CC3263   LPH  1  0.169270756447  0.000000000000
CC3263 CLGR1  1  0.334977918021  0.200657590935
CC3263 BRGR1  1  0.345668702638  0.236682781799
CC3263  IGR1  1  0.368832069310  0.301712530731
CC3263 SG2P1  1  0.355798221064  0.332305491450
CC3263 OG2S1  1  0.318906105146  0.157831660601
CC3263 SG2P2  1  0.352314807076  0.329421919951
CC3263 SEGD1  1  0.363041227642  0.330244580395
CC3263 BG201  1  0.396449929572  0.081561175077
CC3263 CC301  1  0.338541512893  0.041840000000
CC3263 CC3062  1  0.338541512893  0.041840000000
CC3263 CC311  1  0.338541512893  0.041840000000
CC3263 CC3161  1  0.338541512893  0.041840000000
CC3263 CC3162  1  0.338541512893  0.041840000000
CC3263 CC3163  1  0.338541512893  0.041840000000
CC3263 CC321  1  0.338541512893  0.041840000000
CC3263 CC3261  1  0.338541512893  0.041840000000
CC3263 CC3263  1  0.338541512893  0.041840000000
CC3263 CC331  1  0.338541512893  0.041840000000
CC3263 CC2O1  1  0.347450500075  0.138767581228
CC3263 CC2O2  1  0.347450500075  0.110698234855
CC3263 CC2O3  1  0.347450500075  0.125520000000
CC3263 CC2O4  1  0.329632525712  0.102486650838
CC3263 CC2O5  1  0.320723538531  0.130979917850
CC3263 OC2D1  1  0.293996576986  0.144938011577
CC3263 OC2D2  1  0.320723538531  0.144938011577
CC3263 OC2D3  1  0.293996576986  0.144938011577
CC3263 OC2D4  1  0.293996576986  0.144938011577
CC3263 OC3C61  1  0.316269044940  0.132309697301
CC3263 OC311  1  0.326514380198  0.183381431383
CC3263 NC2D1  1  0.307360057758  0.187114168357
CC3263  HCP1  1  0.189271432669  0.089736802707
CC3263  HCA1  1  0.288651184677  0.088756043175
CC3263  HCA2  1  0.288651184677  0.078275472531
CC3263  HCA3  1  0.288651184677  0.064818249282
CC3263 CC312  1  0.338541512893  0.041840000000
CC3263 CC322  1  0.338541512893  0.041840000000
CC3263  HCR1  1  0.240542653898  0.089736802707
CC3263 HCA3M  1  0.288651184677  0.064818249282
CC3263 CC321C  1  0.338541512893  0.041840000000
CC3263 CC321D  1  0.338541512893  0.041840000000
CC3263 CC311C  1  0.338541512893  0.041840000000
CC3263 CC311D  1  0.338541512893  0.041840000000
CC3263 OC301  1  0.316269044940  0.132309697301
CC3263 OC302  1  0.316269044940  0.132309697301
CC3263 HCP1M  1  0.189271432669  0.089736802707
CC3263 OC311M  1  0.326514380198  0.183381431383
CC3263 OC3C5M  1  0.316269044940  0.132309697301
CC3263 CC322C  1  0.338541512893  0.041840000000
CC3263 HCA2C2  1  0.285087589805  0.078275472531
CC3263 CC312C  1  0.338541512893  0.041840000000
CC3263 HCA1C2  1  0.288651184677  0.088756043175
CC3263 OC3C51  1  0.316269044940  0.132309697301
CC3263 CC3152  1  0.338541512893  0.041840000000
CC3263 CC3051  1  0.338541512893  0.041840000000
CC3263 CC3251  1  0.338541512893  0.041840000000
CC3263 CC3151  1  0.338541512893  0.041840000000
CC3263 CC3153  1  0.338541512893  0.041840000000
CC3263 OC2DP  1  0.320723538531  0.144938011577
CC3263 OC312  1  0.326959829558  0.163176000000
CC3263 OC30P  1  0.326959829558  0.163176000000
CC3263    PC  1  0.360813980847  0.320014464673
CC3263    SC  1  0.356359487256  0.286840588481
CC3263 CC312D  1  0.338541512893  0.041840000000
CC3263 OC303  1  0.316269044940  0.132309697301
CC3263 NC311  1  0.347450500075  0.088756043175
CC3263   HN1  1  0.189271432669  0.089736802707
CC3263   HN2  1  0.189271432669  0.089736802707
CC3263   HN3  1  0.267269615442  0.089736802707
CC3263   HN4  1  0.189271432669  0.089736802707
CC3263   HN5  1  0.189271432669  0.089736802707
CC3263   HN6  1  0.286869387241  0.062058748940
CC3263   HN7  1  0.286869387241  0.062058748940
CC3263   HN8  1  0.288651184677  0.070011711020
CC3263   HN9  1  0.288651184677  0.064818249282
CC3263   NN1  1  0.334087019303  0.187114168357
CC3263   NN2  1  0.334087019303  0.187114168357
CC3263  NN2B  1  0.334087019303  0.187114168357
CC3263  NN2G  1  0.334087019303  0.187114168357
CC3263  NN2U  1  0.334087019303  0.187114168357
CC3263   NN3  1  0.334087019303  0.187114168357
CC3263  NN3A  1  0.334087019303  0.187114168357
CC3263  NN3G  1  0.334087019303  0.187114168357
CC3263   NN4  1  0.334087019303  0.187114168357
CC3263   NN6  1  0.334087019303  0.187114168357
CC3263   ON1  1  0.320723538531  0.144938011577
CC3263  ON1C  1  0.320723538531  0.144938011577
CC3263   ON2  1  0.326959829558  0.163176000000
CC3263   ON3  1  0.320723538531  0.144938011577
CC3263   ON4  1  0.326959829558  0.163176000000
CC3263   ON5  1  0.326959829558  0.163176000000
CC3263   ON6  1  0.326959829558  0.163176000000
CC3263  ON6B  1  0.326959829558  0.163176000000
CC3263   CN1  1  0.338541512893  0.132309697301
CC3263  CN1T  1  0.338541512893  0.132309697301
CC3263   CN2  1  0.338541512893  0.132309697301
CC3263   CN3  1  0.338541512893  0.125520000000
CC3263  CN3T  1  0.338541512893  0.125520000000
CC3263   CN4  1  0.338541512893  0.114583559030
CC3263   CN5  1  0.338541512893  0.114583559030
CC3263  CN5G  1  0.338541512893  0.114583559030
CC3263   CN7  1  0.338541512893  0.041840000000
CC3263  CN7B  1  0.338541512893  0.041840000000
CC3263   CN8  1  0.338541512893  0.041840000000
CC3263  CN8B  1  0.338541512893  0.041840000000
CC3263   CN9  1  0.338541512893  0.041840000000
CC3263     P  1  0.360813980847  0.320014464673
CC3263    P2  1  0.360813980847  0.320014464673
CC3263    P3  1  0.360813980847  0.320014464673
CC3263    P4  1  0.360813980847  0.320014464673
CC3263   HOL  1  0.189271432669  0.089736802707
CC3263  HAL1  1  0.286869387241  0.062058748940
CC3263  HAL2  1  0.288651184677  0.070011711020
CC3263  HAL3  1  0.288651184677  0.064818249282
CC3263   HBL  1  0.286869387241  0.062058748940
CC3263   HCL  1  0.189271432669  0.089736802707
CC3263    HL  1  0.231633666716  0.089736802707
CC3263  HEL1  1  0.280633096214  0.073666921749
CC3263  HEL2  1  0.281523994932  0.067464972838
CC3263    CL  1  0.347450500075  0.110698234855
CC3263   CCL  1  0.347450500075  0.110698234855
CC3263  CTL1  1  0.338541512893  0.041840000000
CC3263  CTL2  1  0.338541512893  0.041840000000
CC3263  CTL3  1  0.338541512893  0.041840000000
CC3263  CTL5  1  0.338541512893  0.041840000000
CC3263  CEL1  1  0.355468588538  0.109105371453
CC3263  CEL2  1  0.354577689820  0.105847757841
CC3263  CRL1  1  0.338541512893  0.041840000000
CC3263  CRL2  1  0.338541512893  0.041840000000
CC3263   OBL  1  0.293996576986  0.144938011577
CC3263   OCL  1  0.320723538531  0.144938011577
CC3263   O2L  1  0.320723538531  0.144938011577
CC3263   OHL  1  0.326959829558  0.163176000000
CC3263   OSL  1  0.316269044940  0.132309697301
CC3263  OSLP  1  0.316269044940  0.132309697301
CC3263  NH3L  1  0.334087019303  0.187114168357
CC3263   NTL  1  0.334087019303  0.187114168357
CC3263    SL  1  0.356359487256  0.286840588481
CC3263    PL  1  0.360813980847  0.320014464673
CC3263 HCA1A  1  0.288651184677  0.088756043175
CC3263 HCA2A  1  0.288651184677  0.078275472531
CC3263 HCA3A  1  0.288651184677  0.064818249282
CC3263 CC30A  1  0.338541512893  0.041840000000
CC3263 CC31A  1  0.338541512893  0.041840000000
CC3263 CC32A  1  0.338541512893  0.041840000000
CC3263 CC33A  1  0.338541512893  0.041840000000
CC3263 CC326A  1  0.338541512893  0.041840000000
CC3263 HCA25A  1  0.285087589805  0.078275472531
CC3263 CC325A  1  0.338541512893  0.041840000000
CC3263 CC325B  1  0.338541512893  0.041840000000
CC3263 OC305A  1  0.316269044940  0.132309697301
CC3263 OC30A  1  0.316269044940  0.132309697301
CC3263  HSIO  1  0.189271432669  0.089736802707
CC3263  HSIA  1  0.286869387241  0.062058748940
CC3263   HAL  1  0.286869387241  0.062058748940
CC3263    AL  1  0.365268474438  0.337324864189
CC3263    SI  1  0.365268474438  0.324091246411
CC3263  SIH3  1  0.365268474438  0.324091246411
CC3263  OSIH  1  0.326959829558  0.163176000000
CC3263  OSIE  1  0.326959829558  0.163176000000
CC3263  OSIA  1  0.326959829558  0.163176000000
CC3263   OAL  1  0.326959829558  0.163176000000
CC3263    HT  1  0.189271432669  0.089736802707
CC3263    OT  1  0.326799467788  0.163176000000
CC3263   DUM  1  0.169270756447  0.000000000000
CC3263    CM  1  0.356359487256  0.138767581228
CC3263   CPA  1  0.329632525712  0.125520000000
CC3263   CPB  1  0.329632525712  0.125520000000
CC3263   CPM  1  0.329632525712  0.125520000000
CC3263   CST  1  0.308518226092  0.100764063435
CC3263  CT1X  1  0.338541512893  0.041840000000
CC3263  CT2X  1  0.338541512893  0.041840000000
CC3263  CT3X  1  0.338541512893  0.041840000000
CC3263    HB  1  0.286869387241  0.062058748940
CC3263   NPH  1  0.334087019303  0.187114168357
CC3263    OM  1  0.320723538531  0.144938011577
CC3263   OST  1  0.320010819556  0.169954883425
CC3263   POT  1  0.326403017859  0.123410269913
CC3263   CAL  1  0.291056611216  0.144938011577
CC3263    MG  1  0.274842254546  0.051243325419
CC3263   CES  1  0.356359487256  0.182376331798
CC3263    ZN  1  0.266378716724  0.209200000000
CC3263    FE  1  0.227179173126  0.000000000000
CC3263    HE  1  0.301123766731  0.061020452073
CC3263    NE  1  0.305578260322  0.122698965603
CC3263  CLAL  1  0.339272049842  0.072469005789
CC3263    AG  1  0.300901042052  0.893457908130
CC3263    AU  1  0.300722862308  0.962320000000
CC3263    CU  1  0.285800308779  0.908997471504
CC3263    NI  1  0.282949432881  0.994525446633
CC3263    PB  1  0.328073452955  0.716185437439
CC3263    PD  1  0.294842930769  1.037598257516
CC3263    PT  1  0.296001099102  1.168527606863
CC3263   CAP  1  0.346773417049  0.110698234855
CC3263    FA  1  0.320723538531  0.144938011577
CC3263    CN  1  0.325178032121  0.187114168357
CC3263    NC  1  0.334087019303  0.324091246411
CC3263   OCA  1  0.293996576986  0.144938011577
CC3263   COA  1  0.347450500075  0.138767581228
CC3263   CF1  1  0.338541512893  0.102486650838
CC3263   CF2  1  0.351904993665  0.085746484010
CC3263   CF3  1  0.374177461619  0.059170695450
CC3263   HF1  1  0.286869387241  0.070011711020
CC3263   HF2  1  0.285087589805  0.072469005789
CC3263    F1  1  0.314487247504  0.153729976257
CC3263    F2  1  0.314487247504  0.135577095411
CC3263    F3  1  0.311814551349  0.130309939452
CC3263    OX  1  0.320723538531  0.144938011577
CC3263    HX  1  0.189271432669  0.089736802707
CC3263  HPER  1  0.189271432669  0.089736802707
CC3263  OPER  1  0.318427692534  0.188901923946
CC3263   LIT  1  0.284864865125  0.020196198771
CC3263   RUB  1  0.338541512893  0.162045623205
CC3263   BAR  1  0.337650614175  0.162045623205
CC3263   CAD  1  0.290165712498  0.144938011577
CC3263  ON2B  1  0.326959829558  0.163176000000
CC3263    SP  1  0.365268474438  0.280671252536
CC3263   HNP  1  0.290272620344  0.072469005789
CC3263  HNE1  1  0.280633096214  0.073666921749
CC3263  HNE2  1  0.281523994932  0.067464972838
CC3263  CN3D  1  0.338541512893  0.125520000000
CC3263  CNE1  1  0.355468588538  0.109105371453
CC3263  CNE2  1  0.354577689820  0.105847757841
CC3263   CNA  1  0.346773417049  0.110698234855
CC3263  CNA2  1  0.338541512893  0.110698234855
CC3263   CNG  1  0.347450500075  0.138767581228
CC3263  NN1C  1  0.334087019303  0.187114168357
CC3263  NN2C  1  0.334087019303  0.187114168357
CC3263  NN3I  1  0.334087019303  0.187114168357
CC3263   NNG  1  0.334087019303  0.187114168357
CC3263   FNA  1  0.320723538531  0.144938011577
CC3263  ON2M  1  0.316269044940  0.132309697301
CC3263   CN6  1  0.338541512893  0.041840000000
CC3263  CN7E  1  0.338541512893  0.041840000000
CC3263  CT2P  1  0.338541512893  0.041840000000
CC3263  CTD1  1  0.338541512893  0.041840000000
CC3263  CPD1  1  0.338541512893  0.041840000000
CC3263  CC1A  1  0.355468588538  0.109105371453
CC3263  CC1B  1  0.355468588538  0.109105371453
CC3263   CC2  1  0.354577689820  0.105847757841
CC3263   NS1  1  0.334087019303  0.187114168357
CC3263   NS2  1  0.334087019303  0.187114168357
CC3263   NHL  1  0.307360057758  0.187114168357
CC3263  CTO1  1  0.338541512893  0.041840000000
CC3263  CEL3  1  0.355468588538  0.109105371453
CC3263  CTO2  1  0.338541512893  0.041840000000
CC3263  HN3B  1  0.249451641079  0.089736802707
CC3263  CN1A  1  0.347450500075  0.110698234855
CC3263  CN3A  1  0.329632525712  0.177512086349
CC3263  CN3B  1  0.329632525712  0.177512086349
CC3263  CN3C  1  0.329632525712  0.177512086349
CC331     C  1  0.347450500075  0.138767581228
CC331    CA  1  0.346773417049  0.110698234855
CC331    CC  1  0.347450500075  0.110698234855
CC331    CD  1  0.347450500075  0.110698234855
CC331   CE1  1  0.355468588538  0.109105371453
CC331   CE2  1  0.354577689820  0.105847757841
CC331   CP1  1  0.338541512893  0.041840000000
CC331   CP2  1  0.338541512893  0.041840000000
CC331   CP3  1  0.338541512893  0.041840000000
CC331  CPH1  1  0.329632525712  0.093557084179
CC331  CPH2  1  0.329632525712  0.093557084179
CC331    CS  1  0.365268474438  0.138767581228
CC331   CPT  1  0.334977918021  0.131646486622
CC331    CY  1  0.346559601357  0.113045454929
CC331   CAI  1  0.346559601357  0.113045454929
CC331    CT  1  0.338541512893  0.041840000000
CC331   CT1  1  0.338541512893  0.041840000000
CC331   CT2  1  0.338541512893  0.041840000000
CC331  CT2A  1  0.338541512893  0.041840000000
CC331   CT3  1  0.338541512893  0.041840000000
CC331    C3  1  0.371950214824  0.059170695450
CC331     H  1  0.189271432669  0.089736802707
CC331    HA  1  0.286869387241  0.062058748940
CC331   HB1  1  0.286869387241  0.062058748940
CC331   HB2  1  0.288651184677  0.070011711020
CC331   HE1  1  0.280633096214  0.073666921749
CC331   HE2  1  0.281523994932  0.067464972838
CC331    HC  1  0.189271432669  0.089736802707
CC331    HP  1  0.290272620344  0.072469005789
CC331   HR1  1  0.249451641079  0.089736802707
CC331   HR2  1  0.231633666716  0.089736802707
CC331   HR3  1  0.300054688270  0.036952087465
CC331    HS  1  0.209361198763  0.132309697301
CC331   HA1  1  0.288651184677  0.088756043175
CC331   HA2  1  0.288651184677  0.077149148019
CC331   HA3  1  0.288651184677  0.064818249282
CC331     N  1  0.334087019303  0.004184000000
CC331   NC2  1  0.334087019303  0.187114168357
CC331   NH1  1  0.307360057758  0.187114168357
CC331   NH2  1  0.334087019303  0.187114168357
CC331   NH3  1  0.334087019303  0.187114168357
CC331    NP  1  0.334087019303  0.187114168357
CC331   NR1  1  0.334087019303  0.187114168357
CC331   NR2  1  0.334087019303  0.187114168357
CC331   NR3  1  0.334087019303  0.187114168357
CC331    NY  1  0.334087019303  0.187114168357
CC331     O  1  0.293996576986  0.144938011577
CC331    OB  1  0.293996576986  0.144938011577
CC331    OC  1  0.320723538531  0.144938011577
CC331   OH1  1  0.326959829558  0.163176000000
CC331    OS  1  0.326959829558  0.163176000000
CC331     S  1  0.347450500075  0.280671252536
CC331    SM  1  0.345223253279  0.257919081884
CC331    SS  1  0.365268474438  0.286840588481
CC331  HGA1  1  0.288651184677  0.088756043175
CC331  HGA2  1  0.288651184677  0.078275472531
CC331  HGA3  1  0.288651184677  0.064818249282
CC331  HGA4  1  0.280633096214  0.073666921749
CC331  HGA5  1  0.281523994932  0.067464972838
CC331  HGA6  1  0.286869387241  0.070011711020
CC331  HGA7  1  0.285087589805  0.072469005789
CC331 HGAAM0  1  0.283305792369  0.070011711020
CC331 HGAAM1  1  0.283305792369  0.070011711020
CC331 HGAAM2  1  0.281523994932  0.083680000000
CC331  HGP1  1  0.189271432669  0.089736802707
CC331  HGP2  1  0.189271432669  0.089736802707
CC331  HGP3  1  0.209361198763  0.132309697301
CC331  HGP4  1  0.189271432669  0.089736802707
CC331  HGP5  1  0.231633666716  0.089736802707
CC331 HGPAM1  1  0.247224394284  0.039692909190
CC331 HGPAM2  1  0.247224394284  0.041840000000
CC331 HGPAM3  1  0.246778944925  0.045833423612
CC331 HGR51  1  0.290272620344  0.072469005789
CC331 HGR52  1  0.249451641079  0.089736802707
CC331 HGR53  1  0.231633666716  0.089736802707
CC331 HGR61  1  0.290272620344  0.072469005789
CC331 HGR62  1  0.267269615442  0.089736802707
CC331 HGR63  1  0.249451641079  0.089736802707
CC331 HGR71  1  0.290272620344  0.072469005789
CC331 HGTIP3  1  0.189271432669  0.089736802707
CC331 CG1T1  1  0.333196120584  0.170981810495
CC331 CG1T2  1  0.346782326036  0.134409982486
CC331 CG1N1  1  0.335868816739  0.177512086349
CC331 CG2D1  1  0.355468588538  0.109105371453
CC331 CG2D2  1  0.354577689820  0.105847757841
CC331 CG2D1O  1  0.355468588538  0.109105371453
CC331 CG2D2O  1  0.355468588538  0.109105371453
CC331 CG2DC1  1  0.355468588538  0.109105371453
CC331 CG2DC2  1  0.355468588538  0.109105371453
CC331 CG2DC3  1  0.354577689820  0.105847757841
CC331 CG2N1  1  0.347450500075  0.138767581228
CC331 CG2N2  1  0.347450500075  0.138767581228
CC331 CG2O1  1  0.347450500075  0.138767581228
CC331 CG2O2  1  0.320723538531  0.130979917850
CC331 CG2O3  1  0.347450500075  0.110698234855
CC331 CG2O4  1  0.329632525712  0.102486650838
CC331 CG2O5  1  0.347450500075  0.125520000000
CC331 CG2O6  1  0.347450500075  0.110698234855
CC331 CG2O7  1  0.308518226092  0.100764063435
CC331 CG2R51  1  0.356359487256  0.093557084179
CC331 CG2R52  1  0.365268474438  0.059170695450
CC331 CG2R53  1  0.365268474438  0.059170695450
CC331 CG2R57  1  0.356359487256  0.093557084179
CC331 CG25C1  1  0.355468588538  0.109105371453
CC331 CG25C2  1  0.355468588538  0.109105371453
CC331 CG251O  1  0.355468588538  0.109105371453
CC331 CG252O  1  0.355468588538  0.109105371453
CC331 CG2R61  1  0.346773417049  0.110698234855
CC331 CG2R62  1  0.338541512893  0.125520000000
CC331 CG2R63  1  0.338541512893  0.132309697301
CC331 CG2R64  1  0.356359487256  0.083680000000
CC331 CG2R66  1  0.338541512893  0.110698234855
CC331 CG2R67  1  0.346773417049  0.110698234855
CC331 CG2RC0  1  0.334977918021  0.131646486622
CC331 CG2R71  1  0.346987232741  0.108300154755
CC331 CG2RC7  1  0.334977918021  0.131646486622
CC331 CG301  1  0.338541512893  0.041840000000
CC331 CG302  1  0.374177461619  0.059170695450
CC331 CG311  1  0.338541512893  0.041840000000
CC331 CG312  1  0.351904993665  0.085746484010
CC331 CG314  1  0.338541512893  0.041840000000
CC331 CG321  1  0.338541512893  0.041840000000
CC331 CG322  1  0.338541512893  0.102486650838
CC331 CG323  1  0.365268474438  0.138767581228
CC331 CG324  1  0.338541512893  0.041840000000
CC331 CG331  1  0.338541512893  0.041840000000
CC331 CG334  1  0.338541512893  0.041840000000
CC331 CG3C50  1  0.338541512893  0.041840000000
CC331 CG3C51  1  0.338541512893  0.041840000000
CC331 CG3C52  1  0.338541512893  0.041840000000
CC331 CG3C53  1  0.338541512893  0.041840000000
CC331 CG3C54  1  0.338541512893  0.041840000000
CC331 CG3C31  1  0.338541512893  0.041840000000
CC331 CG3C41  1  0.338541512893  0.041840000000
CC331 CG3RC1  1  0.338541512893  0.041840000000
CC331 CG3AM0  1  0.344777803920  0.110698234855
CC331 CG3AM1  1  0.345668702638  0.116852760686
CC331 CG3AM2  1  0.346559601357  0.118341390899
CC331 NG1T1  1  0.328741626994  0.177512086349
CC331 NG2D1  1  0.334087019303  0.187114168357
CC331 NG2S0  1  0.334087019303  0.004184000000
CC331 NG2S1  1  0.307360057758  0.187114168357
CC331 NG2S2  1  0.334087019303  0.187114168357
CC331 NG2S3  1  0.334087019303  0.187114168357
CC331 NG2O1  1  0.334087019303  0.187114168357
CC331 NG2P1  1  0.334087019303  0.187114168357
CC331 NG2R43  1  0.334087019303  0.187114168357
CC331 NG2R50  1  0.334087019303  0.187114168357
CC331 NG2R51  1  0.334087019303  0.187114168357
CC331 NG2R52  1  0.334087019303  0.187114168357
CC331 NG2R53  1  0.334087019303  0.187114168357
CC331 NG2R57  1  0.334087019303  0.187114168357
CC331 NG2R60  1  0.337650614175  0.102486650838
CC331 NG2R61  1  0.334087019303  0.187114168357
CC331 NG2R62  1  0.352795892384  0.093557084179
CC331 NG2R67  1  0.334087019303  0.187114168357
CC331 NG2RC0  1  0.334087019303  0.187114168357
CC331 NG301  1  0.347450500075  0.078275472531
CC331 NG311  1  0.347450500075  0.088756043175
CC331 NG321  1  0.346559601357  0.102486650838
CC331 NG331  1  0.345668702638  0.110698234855
CC331 NG3C51  1  0.334087019303  0.187114168357
CC331 NG3N1  1  0.351904993665  0.102486650838
CC331 NG3P0  1  0.334087019303  0.187114168357
CC331 NG3P1  1  0.334087019303  0.187114168357
CC331 NG3P2  1  0.334087019303  0.187114168357
CC331 NG3P3  1  0.334087019303  0.187114168357
CC331 OG2D1  1  0.293996576986  0.144938011577
CC331 OG2D2  1  0.320723538531  0.144938011577
CC331 OG2D3  1  0.293996576986  0.144938011577
CC331 OG2D4  1  0.320723538531  0.144938011577
CC331 OG2D5  1  0.320010819556  0.169954883425
CC331 OG2N1  1  0.320723538531  0.144938011577
CC331 OG2P1  1  0.320723538531  0.144938011577
CC331 OG2R50  1  0.320723538531  0.144938011577
CC331 OG3R60  1  0.316269044940  0.132309697301
CC331 OG301  1  0.316269044940  0.132309697301
CC331 OG302  1  0.316269044940  0.132309697301
CC331 OG303  1  0.316269044940  0.132309697301
CC331 OG304  1  0.316269044940  0.132309697301
CC331 OG311  1  0.326514380198  0.183381431383
CC331 OG312  1  0.325178032121  0.144938011577
CC331 OG3C31  1  0.316269044940  0.132309697301
CC331 OG3C51  1  0.316269044940  0.132309697301
CC331 OG3C61  1  0.316269044940  0.132309697301
CC331 OGTIP3  1  0.326799467788  0.163176000000
CC331 SG2D1  1  0.351904993665  0.314496560236
CC331 SG2R50  1  0.347450500075  0.280671252536
CC331 SG311  1  0.347450500075  0.280671252536
CC331 SG301  1  0.345223253279  0.257919081884
CC331 SG302  1  0.365268474438  0.286840588481
CC331 SG3O1  1  0.356359487256  0.286840588481
CC331 SG3O2  1  0.347450500075  0.247528778125
CC331 SG3O3  1  0.347450500075  0.247528778125
CC331  FGA1  1  0.314487247504  0.153729976257
CC331  FGA2  1  0.314487247504  0.135577095411
CC331  FGA3  1  0.311814551349  0.130309939452
CC331  FGP1  1  0.311814551349  0.130309939452
CC331  FGR1  1  0.320723538531  0.144938011577
CC331 CLGA1  1  0.339432411611  0.245040988571
CC331 CLGA3  1  0.339432411611  0.232955260941
CC331 BRGA1  1  0.344777803920  0.289876023155
CC331 BRGA2  1  0.351904993665  0.304599797767
CC331 BRGA3  1  0.347450500075  0.307459952514
CC331   SOD  1  0.294954293108  0.090610410351
CC331   CLA  1  0.371504765465  0.162045623205
CC331   PG0  1  0.360813980847  0.320014464673
CC331   PG1  1  0.360813980847  0.320014464673
CC331   PG2  1  0.360813980847  0.320014464673
CC331  ALG1  1  0.347450500075  0.337324864189
CC331   LPH  1  0.169270756447  0.000000000000
CC331 CLGR1  1  0.334977918021  0.200657590935
CC331 BRGR1  1  0.345668702638  0.236682781799
CC331  IGR1  1  0.368832069310  0.301712530731
CC331 SG2P1  1  0.355798221064  0.332305491450
CC331 OG2S1  1  0.318906105146  0.157831660601
CC331 SG2P2  1  0.352314807076  0.329421919951
CC331 SEGD1  1  0.363041227642  0.330244580395
CC331 BG201  1  0.396449929572  0.081561175077
CC331 CC301  1  0.338541512893  0.041840000000
CC331 CC3062  1  0.338541512893  0.041840000000
CC331 CC311  1  0.338541512893  0.041840000000
CC331 CC3161  1  0.338541512893  0.041840000000
CC331 CC3162  1  0.338541512893  0.041840000000
CC331 CC3163  1  0.338541512893  0.041840000000
CC331 CC321  1  0.338541512893  0.041840000000
CC331 CC3261  1  0.338541512893  0.041840000000
CC331 CC3263  1  0.338541512893  0.041840000000
CC331 CC331  1  0.338541512893  0.041840000000
CC331 CC2O1  1  0.347450500075  0.138767581228
CC331 CC2O2  1  0.347450500075  0.110698234855
CC331 CC2O3  1  0.347450500075  0.125520000000
CC331 CC2O4  1  0.329632525712  0.102486650838
CC331 CC2O5  1  0.320723538531  0.130979917850
CC331 OC2D1  1  0.293996576986  0.144938011577
CC331 OC2D2  1  0.320723538531  0.144938011577
CC331 OC2D3  1  0.293996576986  0.144938011577
CC331 OC2D4  1  0.293996576986  0.144938011577
CC331 OC3C61  1  0.316269044940  0.132309697301
CC331 OC311  1  0.326514380198  0.183381431383
CC331 NC2D1  1  0.307360057758  0.187114168357
CC331  HCP1  1  0.189271432669  0.089736802707
CC331  HCA1  1  0.288651184677  0.088756043175
CC331  HCA2  1  0.288651184677  0.078275472531
CC331  HCA3  1  0.288651184677  0.064818249282
CC331 CC312  1  0.338541512893  0.041840000000
CC331 CC322  1  0.338541512893  0.041840000000
CC331  HCR1  1  0.240542653898  0.089736802707
CC331 HCA3M  1  0.288651184677  0.064818249282
CC331 CC321C  1  0.338541512893  0.041840000000
CC331 CC321D  1  0.338541512893  0.041840000000
CC331 CC311C  1  0.338541512893  0.041840000000
CC331 CC311D  1  0.338541512893  0.041840000000
CC331 OC301  1  0.316269044940  0.132309697301
CC331 OC302  1  0.316269044940  0.132309697301
CC331 HCP1M  1  0.189271432669  0.089736802707
CC331 OC311M  1  0.326514380198  0.183381431383
CC331 OC3C5M  1  0.316269044940  0.132309697301
CC331 CC322C  1  0.338541512893  0.041840000000
CC331 HCA2C2  1  0.285087589805  0.078275472531
CC331 CC312C  1  0.338541512893  0.041840000000
CC331 HCA1C2  1  0.288651184677  0.088756043175
CC331 OC3C51  1  0.316269044940  0.132309697301
CC331 CC3152  1  0.338541512893  0.041840000000
CC331 CC3051  1  0.338541512893  0.041840000000
CC331 CC3251  1  0.338541512893  0.041840000000
CC331 CC3151  1  0.338541512893  0.041840000000
CC331 CC3153  1  0.338541512893  0.041840000000
CC331 OC2DP  1  0.320723538531  0.144938011577
CC331 OC312  1  0.326959829558  0.163176000000
CC331 OC30P  1  0.326959829558  0.163176000000
CC331    PC  1  0.360813980847  0.320014464673
CC331    SC  1  0.356359487256  0.286840588481
CC331 CC312D  1  0.338541512893  0.041840000000
CC331 OC303  1  0.316269044940  0.132309697301
CC331 NC311  1  0.347450500075  0.088756043175
CC331   HN1  1  0.189271432669  0.089736802707
CC331   HN2  1  0.189271432669  0.089736802707
CC331   HN3  1  0.267269615442  0.089736802707
CC331   HN4  1  0.189271432669  0.089736802707
CC331   HN5  1  0.189271432669  0.089736802707
CC331   HN6  1  0.286869387241  0.062058748940
CC331   HN7  1  0.286869387241  0.062058748940
CC331   HN8  1  0.288651184677  0.070011711020
CC331   HN9  1  0.288651184677  0.064818249282
CC331   NN1  1  0.334087019303  0.187114168357
CC331   NN2  1  0.334087019303  0.187114168357
CC331  NN2B  1  0.334087019303  0.187114168357
CC331  NN2G  1  0.334087019303  0.187114168357
CC331  NN2U  1  0.334087019303  0.187114168357
CC331   NN3  1  0.334087019303  0.187114168357
CC331  NN3A  1  0.334087019303  0.187114168357
CC331  NN3G  1  0.334087019303  0.187114168357
CC331   NN4  1  0.334087019303  0.187114168357
CC331   NN6  1  0.334087019303  0.187114168357
CC331   ON1  1  0.320723538531  0.144938011577
CC331  ON1C  1  0.320723538531  0.144938011577
CC331   ON2  1  0.326959829558  0.163176000000
CC331   ON3  1  0.320723538531  0.144938011577
CC331   ON4  1  0.326959829558  0.163176000000
CC331   ON5  1  0.326959829558  0.163176000000
CC331   ON6  1  0.326959829558  0.163176000000
CC331  ON6B  1  0.326959829558  0.163176000000
CC331   CN1  1  0.338541512893  0.132309697301
CC331  CN1T  1  0.338541512893  0.132309697301
CC331   CN2  1  0.338541512893  0.132309697301
CC331   CN3  1  0.338541512893  0.125520000000
CC331  CN3T  1  0.338541512893  0.125520000000
CC331   CN4  1  0.338541512893  0.114583559030
CC331   CN5  1  0.338541512893  0.114583559030
CC331  CN5G  1  0.338541512893  0.114583559030
CC331   CN7  1  0.338541512893  0.041840000000
CC331  CN7B  1  0.338541512893  0.041840000000
CC331   CN8  1  0.338541512893  0.041840000000
CC331  CN8B  1  0.338541512893  0.041840000000
CC331   CN9  1  0.338541512893  0.041840000000
CC331     P  1  0.360813980847  0.320014464673
CC331    P2  1  0.360813980847  0.320014464673
CC331    P3  1  0.360813980847  0.320014464673
CC331    P4  1  0.360813980847  0.320014464673
CC331   HOL  1  0.189271432669  0.089736802707
CC331  HAL1  1  0.286869387241  0.062058748940
CC331  HAL2  1  0.288651184677  0.070011711020
CC331  HAL3  1  0.288651184677  0.064818249282
CC331   HBL  1  0.286869387241  0.062058748940
CC331   HCL  1  0.189271432669  0.089736802707
CC331    HL  1  0.231633666716  0.089736802707
CC331  HEL1  1  0.280633096214  0.073666921749
CC331  HEL2  1  0.281523994932  0.067464972838
CC331    CL  1  0.347450500075  0.110698234855
CC331   CCL  1  0.347450500075  0.110698234855
CC331  CTL1  1  0.338541512893  0.041840000000
CC331  CTL2  1  0.338541512893  0.041840000000
CC331  CTL3  1  0.338541512893  0.041840000000
CC331  CTL5  1  0.338541512893  0.041840000000
CC331  CEL1  1  0.355468588538  0.109105371453
CC331  CEL2  1  0.354577689820  0.105847757841
CC331  CRL1  1  0.338541512893  0.041840000000
CC331  CRL2  1  0.338541512893  0.041840000000
CC331   OBL  1  0.293996576986  0.144938011577
CC331   OCL  1  0.320723538531  0.144938011577
CC331   O2L  1  0.320723538531  0.144938011577
CC331   OHL  1  0.326959829558  0.163176000000
CC331   OSL  1  0.316269044940  0.132309697301
CC331  OSLP  1  0.316269044940  0.132309697301
CC331  NH3L  1  0.334087019303  0.187114168357
CC331   NTL  1  0.334087019303  0.187114168357
CC331    SL  1  0.356359487256  0.286840588481
CC331    PL  1  0.360813980847  0.320014464673
CC331 HCA1A  1  0.288651184677  0.088756043175
CC331 HCA2A  1  0.288651184677  0.078275472531
CC331 HCA3A  1  0.288651184677  0.064818249282
CC331 CC30A  1  0.338541512893  0.041840000000
CC331 CC31A  1  0.338541512893  0.041840000000
CC331 CC32A  1  0.338541512893  0.041840000000
CC331 CC33A  1  0.338541512893  0.041840000000
CC331 CC326A  1  0.338541512893  0.041840000000
CC331 HCA25A  1  0.285087589805  0.078275472531
CC331 CC325A  1  0.338541512893  0.041840000000
CC331 CC325B  1  0.338541512893  0.041840000000
CC331 OC305A  1  0.316269044940  0.132309697301
CC331 OC30A  1  0.316269044940  0.132309697301
CC331  HSIO  1  0.189271432669  0.089736802707
CC331  HSIA  1  0.286869387241  0.062058748940
CC331   HAL  1  0.286869387241  0.062058748940
CC331    AL  1  0.365268474438  0.337324864189
CC331    SI  1  0.365268474438  0.324091246411
CC331  SIH3  1  0.365268474438  0.324091246411
CC331  OSIH  1  0.326959829558  0.163176000000
CC331  OSIE  1  0.326959829558  0.163176000000
CC331  OSIA  1  0.326959829558  0.163176000000
CC331   OAL  1  0.326959829558  0.163176000000
CC331    HT  1  0.189271432669  0.089736802707
CC331    OT  1  0.326799467788  0.163176000000
CC331   DUM  1  0.169270756447  0.000000000000
CC331    CM  1  0.356359487256  0.138767581228
CC331   CPA  1  0.329632525712  0.125520000000
CC331   CPB  1  0.329632525712  0.125520000000
CC331   CPM  1  0.329632525712  0.125520000000
CC331   CST  1  0.308518226092  0.100764063435
CC331  CT1X  1  0.338541512893  0.041840000000
CC331  CT2X  1  0.338541512893  0.041840000000
CC331  CT3X  1  0.338541512893  0.041840000000
CC331    HB  1  0.286869387241  0.062058748940
CC331   NPH  1  0.334087019303  0.187114168357
CC331    OM  1  0.320723538531  0.144938011577
CC331   OST  1  0.320010819556  0.169954883425
CC331   POT  1  0.326403017859  0.123410269913
CC331   CAL  1  0.291056611216  0.144938011577
CC331    MG  1  0.274842254546  0.051243325419
CC331   CES  1  0.356359487256  0.182376331798
CC331    ZN  1  0.266378716724  0.209200000000
CC331    FE  1  0.227179173126  0.000000000000
CC331    HE  1  0.301123766731  0.061020452073
CC331    NE  1  0.305578260322  0.122698965603
CC331  CLAL  1  0.339272049842  0.072469005789
CC331    AG  1  0.300901042052  0.893457908130
CC331    AU  1  0.300722862308  0.962320000000
CC331    CU  1  0.285800308779  0.908997471504
CC331    NI  1  0.282949432881  0.994525446633
CC331    PB  1  0.328073452955  0.716185437439
CC331    PD  1  0.294842930769  1.037598257516
CC331    PT  1  0.296001099102  1.168527606863
CC331   CAP  1  0.346773417049  0.110698234855
CC331    FA  1  0.320723538531  0.144938011577
CC331    CN  1  0.325178032121  0.187114168357
CC331    NC  1  0.334087019303  0.324091246411
CC331   OCA  1  0.293996576986  0.144938011577
CC331   COA  1  0.347450500075  0.138767581228
CC331   CF1  1  0.338541512893  0.102486650838
CC331   CF2  1  0.351904993665  0.085746484010
CC331   CF3  1  0.374177461619  0.059170695450
CC331   HF1  1  0.286869387241  0.070011711020
CC331   HF2  1  0.285087589805  0.072469005789
CC331    F1  1  0.314487247504  0.153729976257
CC331    F2  1  0.314487247504  0.135577095411
CC331    F3  1  0.311814551349  0.130309939452
CC331    OX  1  0.320723538531  0.144938011577
CC331    HX  1  0.189271432669  0.089736802707
CC331  HPER  1  0.189271432669  0.089736802707
CC331  OPER  1  0.318427692534  0.188901923946
CC331   LIT  1  0.284864865125  0.020196198771
CC331   RUB  1  0.338541512893  0.162045623205
CC331   BAR  1  0.337650614175  0.162045623205
CC331   CAD  1  0.290165712498  0.144938011577
CC331  ON2B  1  0.326959829558  0.163176000000
CC331    SP  1  0.365268474438  0.280671252536
CC331   HNP  1  0.290272620344  0.072469005789
CC331  HNE1  1  0.280633096214  0.073666921749
CC331  HNE2  1  0.281523994932  0.067464972838
CC331  CN3D  1  0.338541512893  0.125520000000
CC331  CNE1  1  0.355468588538  0.109105371453
CC331  CNE2  1  0.354577689820  0.105847757841
CC331   CNA  1  0.346773417049  0.110698234855
CC331  CNA2  1  0.338541512893  0.110698234855
CC331   CNG  1  0.347450500075  0.138767581228
CC331  NN1C  1  0.334087019303  0.187114168357
CC331  NN2C  1  0.334087019303  0.187114168357
CC331  NN3I  1  0.334087019303  0.187114168357
CC331   NNG  1  0.334087019303  0.187114168357
CC331   FNA  1  0.320723538531  0.144938011577
CC331  ON2M  1  0.316269044940  0.132309697301
CC331   CN6  1  0.338541512893  0.041840000000
CC331  CN7E  1  0.338541512893  0.041840000000
CC331  CT2P  1  0.338541512893  0.041840000000
CC331  CTD1  1  0.338541512893  0.041840000000
CC331  CPD1  1  0.338541512893  0.041840000000
CC331  CC1A  1  0.355468588538  0.109105371453
CC331  CC1B  1  0.355468588538  0.109105371453
CC331   CC2  1  0.354577689820  0.105847757841
CC331   NS1  1  0.334087019303  0.187114168357
CC331   NS2  1  0.334087019303  0.187114168357
CC331   NHL  1  0.307360057758  0.187114168357
CC331  CTO1  1  0.338541512893  0.041840000000
CC331  CEL3  1  0.355468588538  0.109105371453
CC331  CTO2  1  0.338541512893  0.041840000000
CC331  HN3B  1  0.249451641079  0.089736802707
CC331  CN1A  1  0.347450500075  0.110698234855
CC331  CN3A  1  0.329632525712  0.177512086349
CC331  CN3B  1  0.329632525712  0.177512086349
CC331  CN3C  1  0.329632525712  0.177512086349
OC2D1     C  1  0.302905564168  0.480705002262
OC2D1    CA  1  0.302228481142  0.383469934154
OC2D1    CC  1  0.302905564168  0.383469934154
OC2D1    CD  1  0.302905564168  0.383469934154
OC2D1   CE1  1  0.310923652631  0.377952093472
OC2D1   CE2  1  0.310032753913  0.366667388896
OC2D1   CP1  1  0.293996576986  0.144938011577
OC2D1   CP2  1  0.293996576986  0.144938011577
OC2D1   CP3  1  0.293996576986  0.144938011577
OC2D1  CPH1  1  0.285087589805  0.324091246411
OC2D1  CPH2  1  0.285087589805  0.324091246411
OC2D1    CS  1  0.320723538531  0.480705002262
OC2D1   CPT  1  0.290432982114  0.456036806936
OC2D1    CY  1  0.302014665450  0.391600943002
OC2D1   CAI  1  0.302014665450  0.391600943002
OC2D1    CT  1  0.293996576986  0.144938011577
OC2D1   CT1  1  0.293996576986  0.144938011577
OC2D1   CT2  1  0.293996576986  0.144938011577
OC2D1  CT2A  1  0.293996576986  0.144938011577
OC2D1   CT3  1  0.293996576986  0.144938011577
OC2D1    C3  1  0.327405278917  0.204973301676
OC2D1     H  1  0.144726496762  0.310857403193
OC2D1    HA  1  0.242324451334  0.214977812437
OC2D1   HB1  1  0.242324451334  0.214977812437
OC2D1   HB2  1  0.244106248770  0.242527681224
OC2D1   HE1  1  0.236088160307  0.255189702614
OC2D1   HE2  1  0.236979059025  0.233705521373
OC2D1    HC  1  0.144726496762  0.310857403193
OC2D1    HP  1  0.245727684437  0.251040000000
OC2D1   HR1  1  0.204906705172  0.310857403193
OC2D1   HR2  1  0.187088730809  0.310857403193
OC2D1   HR3  1  0.255509752363  0.128005785869
OC2D1    HS  1  0.164816262856  0.458334236120
OC2D1   HA1  1  0.244106248770  0.307459952514
OC2D1   HA2  1  0.244106248770  0.267252488258
OC2D1   HA3  1  0.244106248770  0.224537002029
OC2D1     N  1  0.289542083396  0.014493801158
OC2D1   NC2  1  0.289542083396  0.648182492821
OC2D1   NH1  1  0.262815121851  0.648182492821
OC2D1   NH2  1  0.289542083396  0.648182492821
OC2D1   NH3  1  0.289542083396  0.648182492821
OC2D1    NP  1  0.289542083396  0.648182492821
OC2D1   NR1  1  0.289542083396  0.648182492821
OC2D1   NR2  1  0.289542083396  0.648182492821
OC2D1   NR3  1  0.289542083396  0.648182492821
OC2D1    NY  1  0.289542083396  0.648182492821
OC2D1     O  1  0.249451641079  0.502080000000
OC2D1    OB  1  0.249451641079  0.502080000000
OC2D1    OC  1  0.276178602624  0.502080000000
OC2D1   OH1  1  0.282414893650  0.565258245152
OC2D1    OS  1  0.282414893650  0.565258245152
OC2D1     S  1  0.302905564168  0.972273739232
OC2D1    SM  1  0.300678317372  0.893457908130
OC2D1    SS  1  0.320723538531  0.993644945843
OC2D1  HGA1  1  0.244106248770  0.307459952514
OC2D1  HGA2  1  0.244106248770  0.271154190821
OC2D1  HGA3  1  0.244106248770  0.224537002029
OC2D1  HGA4  1  0.236088160307  0.255189702614
OC2D1  HGA5  1  0.236979059025  0.233705521373
OC2D1  HGA6  1  0.242324451334  0.242527681224
OC2D1  HGA7  1  0.240542653898  0.251040000000
OC2D1 HGAAM0  1  0.238760856462  0.242527681224
OC2D1 HGAAM1  1  0.238760856462  0.242527681224
OC2D1 HGAAM2  1  0.236979059025  0.289876023155
OC2D1  HGP1  1  0.144726496762  0.310857403193
OC2D1  HGP2  1  0.144726496762  0.310857403193
OC2D1  HGP3  1  0.164816262856  0.458334236120
OC2D1  HGP4  1  0.144726496762  0.310857403193
OC2D1  HGP5  1  0.187088730809  0.310857403193
OC2D1 HGPAM1  1  0.202679458377  0.137500270836
OC2D1 HGPAM2  1  0.202679458377  0.144938011577
OC2D1 HGPAM3  1  0.202234009018  0.158771636762
OC2D1 HGR51  1  0.245727684437  0.251040000000
OC2D1 HGR52  1  0.204906705172  0.310857403193
OC2D1 HGR53  1  0.187088730809  0.310857403193
OC2D1 HGR61  1  0.245727684437  0.251040000000
OC2D1 HGR62  1  0.222724679535  0.310857403193
OC2D1 HGR63  1  0.204906705172  0.310857403193
OC2D1 HGR71  1  0.245727684437  0.251040000000
OC2D1 HGTIP3  1  0.144726496762  0.310857403193
OC2D1 CG1T1  1  0.288651184677  0.592298365893
OC2D1 CG1T2  1  0.302237390129  0.465609837422
OC2D1 CG1N1  1  0.291323880832  0.614919905028
OC2D1 CG2D1  1  0.310923652631  0.377952093472
OC2D1 CG2D2  1  0.310032753913  0.366667388896
OC2D1 CG2D1O  1  0.310923652631  0.377952093472
OC2D1 CG2D2O  1  0.310923652631  0.377952093472
OC2D1 CG2DC1  1  0.310923652631  0.377952093472
OC2D1 CG2DC2  1  0.310923652631  0.377952093472
OC2D1 CG2DC3  1  0.310032753913  0.366667388896
OC2D1 CG2N1  1  0.302905564168  0.480705002262
OC2D1 CG2N2  1  0.302905564168  0.480705002262
OC2D1 CG2O1  1  0.302905564168  0.480705002262
OC2D1 CG2O2  1  0.276178602624  0.453727744975
OC2D1 CG2O3  1  0.302905564168  0.383469934154
OC2D1 CG2O4  1  0.285087589805  0.355024172698
OC2D1 CG2O5  1  0.302905564168  0.434814034732
OC2D1 CG2O6  1  0.302905564168  0.383469934154
OC2D1 CG2O7  1  0.263973290185  0.349056954894
OC2D1 CG2R51  1  0.311814551349  0.324091246411
OC2D1 CG2R52  1  0.320723538531  0.204973301676
OC2D1 CG2R53  1  0.320723538531  0.204973301676
OC2D1 CG2R57  1  0.311814551349  0.324091246411
OC2D1 CG25C1  1  0.310923652631  0.377952093472
OC2D1 CG25C2  1  0.310923652631  0.377952093472
OC2D1 CG251O  1  0.310923652631  0.377952093472
OC2D1 CG252O  1  0.310923652631  0.377952093472
OC2D1 CG2R61  1  0.302228481142  0.383469934154
OC2D1 CG2R62  1  0.293996576986  0.434814034732
OC2D1 CG2R63  1  0.293996576986  0.458334236120
OC2D1 CG2R64  1  0.311814551349  0.289876023155
OC2D1 CG2R66  1  0.293996576986  0.383469934154
OC2D1 CG2R67  1  0.302228481142  0.383469934154
OC2D1 CG2RC0  1  0.290432982114  0.456036806936
OC2D1 CG2R71  1  0.302442296834  0.375162741007
OC2D1 CG2RC7  1  0.290432982114  0.456036806936
OC2D1 CG301  1  0.293996576986  0.144938011577
OC2D1 CG302  1  0.329632525712  0.204973301676
OC2D1 CG311  1  0.293996576986  0.144938011577
OC2D1 CG312  1  0.307360057758  0.297034533750
OC2D1 CG314  1  0.293996576986  0.144938011577
OC2D1 CG321  1  0.293996576986  0.144938011577
OC2D1 CG322  1  0.293996576986  0.355024172698
OC2D1 CG323  1  0.320723538531  0.480705002262
OC2D1 CG324  1  0.293996576986  0.144938011577
OC2D1 CG331  1  0.293996576986  0.144938011577
OC2D1 CG334  1  0.293996576986  0.144938011577
OC2D1 CG3C50  1  0.293996576986  0.144938011577
OC2D1 CG3C51  1  0.293996576986  0.144938011577
OC2D1 CG3C52  1  0.293996576986  0.144938011577
OC2D1 CG3C53  1  0.293996576986  0.144938011577
OC2D1 CG3C54  1  0.293996576986  0.144938011577
OC2D1 CG3C31  1  0.293996576986  0.144938011577
OC2D1 CG3C41  1  0.293996576986  0.144938011577
OC2D1 CG3RC1  1  0.293996576986  0.144938011577
OC2D1 CG3AM0  1  0.300232868013  0.383469934154
OC2D1 CG3AM1  1  0.301123766731  0.404789837027
OC2D1 CG3AM2  1  0.302014665450  0.409946603352
OC2D1 NG1T1  1  0.284196691087  0.614919905028
OC2D1 NG2D1  1  0.289542083396  0.648182492821
OC2D1 NG2S0  1  0.289542083396  0.014493801158
OC2D1 NG2S1  1  0.262815121851  0.648182492821
OC2D1 NG2S2  1  0.289542083396  0.648182492821
OC2D1 NG2S3  1  0.289542083396  0.648182492821
OC2D1 NG2O1  1  0.289542083396  0.648182492821
OC2D1 NG2P1  1  0.289542083396  0.648182492821
OC2D1 NG2R43  1  0.289542083396  0.648182492821
OC2D1 NG2R50  1  0.289542083396  0.648182492821
OC2D1 NG2R51  1  0.289542083396  0.648182492821
OC2D1 NG2R52  1  0.289542083396  0.648182492821
OC2D1 NG2R53  1  0.289542083396  0.648182492821
OC2D1 NG2R57  1  0.289542083396  0.648182492821
OC2D1 NG2R60  1  0.293105678268  0.355024172698
OC2D1 NG2R61  1  0.289542083396  0.648182492821
OC2D1 NG2R62  1  0.308250956477  0.324091246411
OC2D1 NG2R67  1  0.289542083396  0.648182492821
OC2D1 NG2RC0  1  0.289542083396  0.648182492821
OC2D1 NG301  1  0.302905564168  0.271154190821
OC2D1 NG311  1  0.302905564168  0.307459952514
OC2D1 NG321  1  0.302014665450  0.355024172698
OC2D1 NG331  1  0.301123766731  0.383469934154
OC2D1 NG3C51  1  0.289542083396  0.648182492821
OC2D1 NG3N1  1  0.307360057758  0.355024172698
OC2D1 NG3P0  1  0.289542083396  0.648182492821
OC2D1 NG3P1  1  0.289542083396  0.648182492821
OC2D1 NG3P2  1  0.289542083396  0.648182492821
OC2D1 NG3P3  1  0.289542083396  0.648182492821
OC2D1 OG2D1  1  0.249451641079  0.502080000000
OC2D1 OG2D2  1  0.276178602624  0.502080000000
OC2D1 OG2D3  1  0.249451641079  0.502080000000
OC2D1 OG2D4  1  0.276178602624  0.502080000000
OC2D1 OG2D5  1  0.275465883649  0.588740986173
OC2D1 OG2N1  1  0.276178602624  0.502080000000
OC2D1 OG2P1  1  0.276178602624  0.502080000000
OC2D1 OG2R50  1  0.276178602624  0.502080000000
OC2D1 OG3R60  1  0.271724109033  0.458334236120
OC2D1 OG301  1  0.271724109033  0.458334236120
OC2D1 OG302  1  0.271724109033  0.458334236120
OC2D1 OG303  1  0.271724109033  0.458334236120
OC2D1 OG304  1  0.271724109033  0.458334236120
OC2D1 OG311  1  0.281969444291  0.635251912639
OC2D1 OG312  1  0.280633096214  0.502080000000
OC2D1 OG3C31  1  0.271724109033  0.458334236120
OC2D1 OG3C51  1  0.271724109033  0.458334236120
OC2D1 OG3C61  1  0.271724109033  0.458334236120
OC2D1 OGTIP3  1  0.282254531881  0.565258245152
OC2D1 SG2D1  1  0.307360057758  1.089448042267
OC2D1 SG2R50  1  0.302905564168  0.972273739232
OC2D1 SG311  1  0.302905564168  0.972273739232
OC2D1 SG301  1  0.300678317372  0.893457908130
OC2D1 SG302  1  0.320723538531  0.993644945843
OC2D1 SG3O1  1  0.311814551349  0.993644945843
OC2D1 SG3O2  1  0.302905564168  0.857464840095
OC2D1 SG3O3  1  0.302905564168  0.857464840095
OC2D1  FGA1  1  0.269942311597  0.532536259047
OC2D1  FGA2  1  0.269942311597  0.469652835188
OC2D1  FGA3  1  0.267269615442  0.451406871724
OC2D1  FGP1  1  0.267269615442  0.451406871724
OC2D1  FGR1  1  0.276178602624  0.502080000000
OC2D1 CLGA1  1  0.294887475704  0.848846884285
OC2D1 CLGA3  1  0.294887475704  0.806980695680
OC2D1 BRGA1  1  0.300232868013  1.004160000000
OC2D1 BRGA2  1  0.307360057758  1.055164651417
OC2D1 BRGA3  1  0.302905564168  1.065072518094
OC2D1   SOD  1  0.250409357201  0.313883668846
OC2D1   CLA  1  0.326959829558  0.561342505072
OC2D1   PG0  1  0.316269044940  1.108562623941
OC2D1   PG1  1  0.316269044940  1.108562623941
OC2D1   PG2  1  0.316269044940  1.108562623941
OC2D1  ALG1  1  0.302905564168  1.168527606863
OC2D1   LPH  1  0.124725820540  0.000000000000
OC2D1 CLGR1  1  0.290432982114  0.695098284849
OC2D1 BRGR1  1  0.301123766731  0.819893206704
OC2D1  IGR1  1  0.324287133403  1.045162865012
OC2D1 SG2P1  1  0.311253285157  1.151139989652
OC2D1 OG2S1  1  0.274361169238  0.546744910407
OC2D1 SG2P2  1  0.307769871169  1.141151004963
OC2D1 SEGD1  1  0.318496291735  1.144000784335
OC2D1 BG201  1  0.351904993665  0.282536198318
OC2D1 CC301  1  0.293996576986  0.144938011577
OC2D1 CC3062  1  0.293996576986  0.144938011577
OC2D1 CC311  1  0.293996576986  0.144938011577
OC2D1 CC3161  1  0.293996576986  0.144938011577
OC2D1 CC3162  1  0.293996576986  0.144938011577
OC2D1 CC3163  1  0.293996576986  0.144938011577
OC2D1 CC321  1  0.293996576986  0.144938011577
OC2D1 CC3261  1  0.293996576986  0.144938011577
OC2D1 CC3263  1  0.293996576986  0.144938011577
OC2D1 CC331  1  0.293996576986  0.144938011577
OC2D1 CC2O1  1  0.302905564168  0.480705002262
OC2D1 CC2O2  1  0.302905564168  0.383469934154
OC2D1 CC2O3  1  0.302905564168  0.434814034732
OC2D1 CC2O4  1  0.285087589805  0.355024172698
OC2D1 CC2O5  1  0.276178602624  0.453727744975
OC2D1 OC2D1  1  0.249451641079  0.502080000000
OC2D1 OC2D2  1  0.276178602624  0.502080000000
OC2D1 OC2D3  1  0.249451641079  0.502080000000
OC2D1 OC2D4  1  0.249451641079  0.502080000000
OC2D1 OC3C61  1  0.271724109033  0.458334236120
OC2D1 OC311  1  0.281969444291  0.635251912639
OC2D1 NC2D1  1  0.262815121851  0.648182492821
OC2D1  HCP1  1  0.144726496762  0.310857403193
OC2D1  HCA1  1  0.244106248770  0.307459952514
OC2D1  HCA2  1  0.244106248770  0.271154190821
OC2D1  HCA3  1  0.244106248770  0.224537002029
OC2D1 CC312  1  0.293996576986  0.144938011577
OC2D1 CC322  1  0.293996576986  0.144938011577
OC2D1  HCR1  1  0.195997717991  0.310857403193
OC2D1 HCA3M  1  0.244106248770  0.224537002029
OC2D1 CC321C  1  0.293996576986  0.144938011577
OC2D1 CC321D  1  0.293996576986  0.144938011577
OC2D1 CC311C  1  0.293996576986  0.144938011577
OC2D1 CC311D  1  0.293996576986  0.144938011577
OC2D1 OC301  1  0.271724109033  0.458334236120
OC2D1 OC302  1  0.271724109033  0.458334236120
OC2D1 HCP1M  1  0.144726496762  0.310857403193
OC2D1 OC311M  1  0.281969444291  0.635251912639
OC2D1 OC3C5M  1  0.271724109033  0.458334236120
OC2D1 CC322C  1  0.293996576986  0.144938011577
OC2D1 HCA2C2  1  0.240542653898  0.271154190821
OC2D1 CC312C  1  0.293996576986  0.144938011577
OC2D1 HCA1C2  1  0.244106248770  0.307459952514
OC2D1 OC3C51  1  0.271724109033  0.458334236120
OC2D1 CC3152  1  0.293996576986  0.144938011577
OC2D1 CC3051  1  0.293996576986  0.144938011577
OC2D1 CC3251  1  0.293996576986  0.144938011577
OC2D1 CC3151  1  0.293996576986  0.144938011577
OC2D1 CC3153  1  0.293996576986  0.144938011577
OC2D1 OC2DP  1  0.276178602624  0.502080000000
OC2D1 OC312  1  0.282414893650  0.565258245152
OC2D1 OC30P  1  0.282414893650  0.565258245152
OC2D1    PC  1  0.316269044940  1.108562623941
OC2D1    SC  1  0.311814551349  0.993644945843
OC2D1 CC312D  1  0.293996576986  0.144938011577
OC2D1 OC303  1  0.271724109033  0.458334236120
OC2D1 NC311  1  0.302905564168  0.307459952514
OC2D1   HN1  1  0.144726496762  0.310857403193
OC2D1   HN2  1  0.144726496762  0.310857403193
OC2D1   HN3  1  0.222724679535  0.310857403193
OC2D1   HN4  1  0.144726496762  0.310857403193
OC2D1   HN5  1  0.144726496762  0.310857403193
OC2D1   HN6  1  0.242324451334  0.214977812437
OC2D1   HN7  1  0.242324451334  0.214977812437
OC2D1   HN8  1  0.244106248770  0.242527681224
OC2D1   HN9  1  0.244106248770  0.224537002029
OC2D1   NN1  1  0.289542083396  0.648182492821
OC2D1   NN2  1  0.289542083396  0.648182492821
OC2D1  NN2B  1  0.289542083396  0.648182492821
OC2D1  NN2G  1  0.289542083396  0.648182492821
OC2D1  NN2U  1  0.289542083396  0.648182492821
OC2D1   NN3  1  0.289542083396  0.648182492821
OC2D1  NN3A  1  0.289542083396  0.648182492821
OC2D1  NN3G  1  0.289542083396  0.648182492821
OC2D1   NN4  1  0.289542083396  0.648182492821
OC2D1   NN6  1  0.289542083396  0.648182492821
OC2D1   ON1  1  0.276178602624  0.502080000000
OC2D1  ON1C  1  0.276178602624  0.502080000000
OC2D1   ON2  1  0.282414893650  0.565258245152
OC2D1   ON3  1  0.276178602624  0.502080000000
OC2D1   ON4  1  0.282414893650  0.565258245152
OC2D1   ON5  1  0.282414893650  0.565258245152
OC2D1   ON6  1  0.282414893650  0.565258245152
OC2D1  ON6B  1  0.282414893650  0.565258245152
OC2D1   CN1  1  0.293996576986  0.458334236120
OC2D1  CN1T  1  0.293996576986  0.458334236120
OC2D1   CN2  1  0.293996576986  0.458334236120
OC2D1   CN3  1  0.293996576986  0.434814034732
OC2D1  CN3T  1  0.293996576986  0.434814034732
OC2D1   CN4  1  0.293996576986  0.396929091904
OC2D1   CN5  1  0.293996576986  0.396929091904
OC2D1  CN5G  1  0.293996576986  0.396929091904
OC2D1   CN7  1  0.293996576986  0.144938011577
OC2D1  CN7B  1  0.293996576986  0.144938011577
OC2D1   CN8  1  0.293996576986  0.144938011577
OC2D1  CN8B  1  0.293996576986  0.144938011577
OC2D1   CN9  1  0.293996576986  0.144938011577
OC2D1     P  1  0.316269044940  1.108562623941
OC2D1    P2  1  0.316269044940  1.108562623941
OC2D1    P3  1  0.316269044940  1.108562623941
OC2D1    P4  1  0.316269044940  1.108562623941
OC2D1   HOL  1  0.144726496762  0.310857403193
OC2D1  HAL1  1  0.242324451334  0.214977812437
OC2D1  HAL2  1  0.244106248770  0.242527681224
OC2D1  HAL3  1  0.244106248770  0.224537002029
OC2D1   HBL  1  0.242324451334  0.214977812437
OC2D1   HCL  1  0.144726496762  0.310857403193
OC2D1    HL  1  0.187088730809  0.310857403193
OC2D1  HEL1  1  0.236088160307  0.255189702614
OC2D1  HEL2  1  0.236979059025  0.233705521373
OC2D1    CL  1  0.302905564168  0.383469934154
OC2D1   CCL  1  0.302905564168  0.383469934154
OC2D1  CTL1  1  0.293996576986  0.144938011577
OC2D1  CTL2  1  0.293996576986  0.144938011577
OC2D1  CTL3  1  0.293996576986  0.144938011577
OC2D1  CTL5  1  0.293996576986  0.144938011577
OC2D1  CEL1  1  0.310923652631  0.377952093472
OC2D1  CEL2  1  0.310032753913  0.366667388896
OC2D1  CRL1  1  0.293996576986  0.144938011577
OC2D1  CRL2  1  0.293996576986  0.144938011577
OC2D1   OBL  1  0.249451641079  0.502080000000
OC2D1   OCL  1  0.276178602624  0.502080000000
OC2D1   O2L  1  0.276178602624  0.502080000000
OC2D1   OHL  1  0.282414893650  0.565258245152
OC2D1   OSL  1  0.271724109033  0.458334236120
OC2D1  OSLP  1  0.271724109033  0.458334236120
OC2D1  NH3L  1  0.289542083396  0.648182492821
OC2D1   NTL  1  0.289542083396  0.648182492821
OC2D1    SL  1  0.311814551349  0.993644945843
OC2D1    PL  1  0.316269044940  1.108562623941
OC2D1 HCA1A  1  0.244106248770  0.307459952514
OC2D1 HCA2A  1  0.244106248770  0.271154190821
OC2D1 HCA3A  1  0.244106248770  0.224537002029
OC2D1 CC30A  1  0.293996576986  0.144938011577
OC2D1 CC31A  1  0.293996576986  0.144938011577
OC2D1 CC32A  1  0.293996576986  0.144938011577
OC2D1 CC33A  1  0.293996576986  0.144938011577
OC2D1 CC326A  1  0.293996576986  0.144938011577
OC2D1 HCA25A  1  0.240542653898  0.271154190821
OC2D1 CC325A  1  0.293996576986  0.144938011577
OC2D1 CC325B  1  0.293996576986  0.144938011577
OC2D1 OC305A  1  0.271724109033  0.458334236120
OC2D1 OC30A  1  0.271724109033  0.458334236120
OC2D1  HSIO  1  0.144726496762  0.310857403193
OC2D1  HSIA  1  0.242324451334  0.214977812437
OC2D1   HAL  1  0.242324451334  0.214977812437
OC2D1    AL  1  0.320723538531  1.168527606863
OC2D1    SI  1  0.320723538531  1.122685010143
OC2D1  SIH3  1  0.320723538531  1.122685010143
OC2D1  OSIH  1  0.282414893650  0.565258245152
OC2D1  OSIE  1  0.282414893650  0.565258245152
OC2D1  OSIA  1  0.282414893650  0.565258245152
OC2D1   OAL  1  0.282414893650  0.565258245152
OC2D1    HT  1  0.144726496762  0.310857403193
OC2D1    OT  1  0.282254531881  0.565258245152
OC2D1   DUM  1  0.124725820540  0.000000000000
OC2D1    CM  1  0.311814551349  0.480705002262
OC2D1   CPA  1  0.285087589805  0.434814034732
OC2D1   CPB  1  0.285087589805  0.434814034732
OC2D1   CPM  1  0.285087589805  0.434814034732
OC2D1   CST  1  0.263973290185  0.349056954894
OC2D1  CT1X  1  0.293996576986  0.144938011577
OC2D1  CT2X  1  0.293996576986  0.144938011577
OC2D1  CT3X  1  0.293996576986  0.144938011577
OC2D1    HB  1  0.242324451334  0.214977812437
OC2D1   NPH  1  0.289542083396  0.648182492821
OC2D1    OM  1  0.276178602624  0.502080000000
OC2D1   OST  1  0.275465883649  0.588740986173
OC2D1   POT  1  0.281858081952  0.427505715330
OC2D1   CAL  1  0.246511675309  0.502080000000
OC2D1    MG  1  0.230297318639  0.177512086349
OC2D1   CES  1  0.311814551349  0.631770145543
OC2D1    ZN  1  0.221833780817  0.724690057887
OC2D1    FE  1  0.182634237219  0.000000000000
OC2D1    HE  1  0.256578830824  0.211381046583
OC2D1    NE  1  0.261033324415  0.425041684920
OC2D1  CLAL  1  0.294727113935  0.251040000000
OC2D1    AG  1  0.256356106145  3.095028982611
OC2D1    AU  1  0.256177926401  3.333574266279
OC2D1    CU  1  0.241255372872  3.148859609192
OC2D1    NI  1  0.238404496974  3.445137205976
OC2D1    PB  1  0.283528517048  2.480939130571
OC2D1    PD  1  0.250297994862  3.594345799725
OC2D1    PT  1  0.251456163195  4.047898370266
OC2D1   CAP  1  0.302228481142  0.383469934154
OC2D1    FA  1  0.276178602624  0.502080000000
OC2D1    CN  1  0.280633096214  0.648182492821
OC2D1    NC  1  0.289542083396  1.122685010143
OC2D1   OCA  1  0.249451641079  0.502080000000
OC2D1   COA  1  0.302905564168  0.480705002262
OC2D1   CF1  1  0.293996576986  0.355024172698
OC2D1   CF2  1  0.307360057758  0.297034533750
OC2D1   CF3  1  0.329632525712  0.204973301676
OC2D1   HF1  1  0.242324451334  0.242527681224
OC2D1   HF2  1  0.240542653898  0.251040000000
OC2D1    F1  1  0.269942311597  0.532536259047
OC2D1    F2  1  0.269942311597  0.469652835188
OC2D1    F3  1  0.267269615442  0.451406871724
OC2D1    OX  1  0.276178602624  0.502080000000
OC2D1    HX  1  0.144726496762  0.310857403193
OC2D1  HPER  1  0.144726496762  0.310857403193
OC2D1  OPER  1  0.273882756627  0.654375459843
OC2D1   LIT  1  0.240319929218  0.069961684782
OC2D1   RUB  1  0.293996576986  0.561342505072
OC2D1   BAR  1  0.293105678268  0.561342505072
OC2D1   CAD  1  0.245620776591  0.502080000000
OC2D1  ON2B  1  0.282414893650  0.565258245152
OC2D1    SP  1  0.320723538531  0.972273739232
OC2D1   HNP  1  0.245727684437  0.251040000000
OC2D1  HNE1  1  0.236088160307  0.255189702614
OC2D1  HNE2  1  0.236979059025  0.233705521373
OC2D1  CN3D  1  0.293996576986  0.434814034732
OC2D1  CNE1  1  0.310923652631  0.377952093472
OC2D1  CNE2  1  0.310032753913  0.366667388896
OC2D1   CNA  1  0.302228481142  0.383469934154
OC2D1  CNA2  1  0.293996576986  0.383469934154
OC2D1   CNG  1  0.302905564168  0.480705002262
OC2D1  NN1C  1  0.289542083396  0.648182492821
OC2D1  NN2C  1  0.289542083396  0.648182492821
OC2D1  NN3I  1  0.289542083396  0.648182492821
OC2D1   NNG  1  0.289542083396  0.648182492821
OC2D1   FNA  1  0.276178602624  0.502080000000
OC2D1  ON2M  1  0.271724109033  0.458334236120
OC2D1   CN6  1  0.293996576986  0.144938011577
OC2D1  CN7E  1  0.293996576986  0.144938011577
OC2D1  CT2P  1  0.293996576986  0.144938011577
OC2D1  CTD1  1  0.293996576986  0.144938011577
OC2D1  CPD1  1  0.293996576986  0.144938011577
OC2D1  CC1A  1  0.310923652631  0.377952093472
OC2D1  CC1B  1  0.310923652631  0.377952093472
OC2D1   CC2  1  0.310032753913  0.366667388896
OC2D1   NS1  1  0.289542083396  0.648182492821
OC2D1   NS2  1  0.289542083396  0.648182492821
OC2D1   NHL  1  0.262815121851  0.648182492821
OC2D1  CTO1  1  0.293996576986  0.144938011577
OC2D1  CEL3  1  0.310923652631  0.377952093472
OC2D1  CTO2  1  0.293996576986  0.144938011577
OC2D1  HN3B  1  0.204906705172  0.310857403193
OC2D1  CN1A  1  0.302905564168  0.383469934154
OC2D1  CN3A  1  0.285087589805  0.614919905028
OC2D1  CN3B  1  0.285087589805  0.614919905028
OC2D1  CN3C  1  0.285087589805  0.614919905028
OC2D3     C  1  0.302905564168  0.480705002262
OC2D3    CA  1  0.302228481142  0.383469934154
OC2D3    CC  1  0.302905564168  0.383469934154
OC2D3    CD  1  0.302905564168  0.383469934154
OC2D3   CE1  1  0.310923652631  0.377952093472
OC2D3   CE2  1  0.310032753913  0.366667388896
OC2D3   CP1  1  0.293996576986  0.144938011577
OC2D3   CP2  1  0.293996576986  0.144938011577
OC2D3   CP3  1  0.293996576986  0.144938011577
OC2D3  CPH1  1  0.285087589805  0.324091246411
OC2D3  CPH2  1  0.285087589805  0.324091246411
OC2D3    CS  1  0.320723538531  0.480705002262
OC2D3   CPT  1  0.290432982114  0.456036806936
OC2D3    CY  1  0.302014665450  0.391600943002
OC2D3   CAI  1  0.302014665450  0.391600943002
OC2D3    CT  1  0.293996576986  0.144938011577
OC2D3   CT1  1  0.293996576986  0.144938011577
OC2D3   CT2  1  0.293996576986  0.144938011577
OC2D3  CT2A  1  0.293996576986  0.144938011577
OC2D3   CT3  1  0.293996576986  0.144938011577
OC2D3    C3  1  0.327405278917  0.204973301676
OC2D3     H  1  0.144726496762  0.310857403193
OC2D3    HA  1  0.242324451334  0.214977812437
OC2D3   HB1  1  0.242324451334  0.214977812437
OC2D3   HB2  1  0.244106248770  0.242527681224
OC2D3   HE1  1  0.236088160307  0.255189702614
OC2D3   HE2  1  0.236979059025  0.233705521373
OC2D3    HC  1  0.144726496762  0.310857403193
OC2D3    HP  1  0.245727684437  0.251040000000
OC2D3   HR1  1  0.204906705172  0.310857403193
OC2D3   HR2  1  0.187088730809  0.310857403193
OC2D3   HR3  1  0.255509752363  0.128005785869
OC2D3    HS  1  0.164816262856  0.458334236120
OC2D3   HA1  1  0.244106248770  0.307459952514
OC2D3   HA2  1  0.244106248770  0.267252488258
OC2D3   HA3  1  0.244106248770  0.224537002029
OC2D3     N  1  0.289542083396  0.014493801158
OC2D3   NC2  1  0.289542083396  0.648182492821
OC2D3   NH1  1  0.262815121851  0.648182492821
OC2D3   NH2  1  0.289542083396  0.648182492821
OC2D3   NH3  1  0.289542083396  0.648182492821
OC2D3    NP  1  0.289542083396  0.648182492821
OC2D3   NR1  1  0.289542083396  0.648182492821
OC2D3   NR2  1  0.289542083396  0.648182492821
OC2D3   NR3  1  0.289542083396  0.648182492821
OC2D3    NY  1  0.289542083396  0.648182492821
OC2D3     O  1  0.249451641079  0.502080000000
OC2D3    OB  1  0.249451641079  0.502080000000
OC2D3    OC  1  0.276178602624  0.502080000000
OC2D3   OH1  1  0.282414893650  0.565258245152
OC2D3    OS  1  0.282414893650  0.565258245152
OC2D3     S  1  0.302905564168  0.972273739232
OC2D3    SM  1  0.300678317372  0.893457908130
OC2D3    SS  1  0.320723538531  0.993644945843
OC2D3  HGA1  1  0.244106248770  0.307459952514
OC2D3  HGA2  1  0.244106248770  0.271154190821
OC2D3  HGA3  1  0.244106248770  0.224537002029
OC2D3  HGA4  1  0.236088160307  0.255189702614
OC2D3  HGA5  1  0.236979059025  0.233705521373
OC2D3  HGA6  1  0.242324451334  0.242527681224
OC2D3  HGA7  1  0.240542653898  0.251040000000
OC2D3 HGAAM0  1  0.238760856462  0.242527681224
OC2D3 HGAAM1  1  0.238760856462  0.242527681224
OC2D3 HGAAM2  1  0.236979059025  0.289876023155
OC2D3  HGP1  1  0.144726496762  0.310857403193
OC2D3  HGP2  1  0.144726496762  0.310857403193
OC2D3  HGP3  1  0.164816262856  0.458334236120
OC2D3  HGP4  1  0.144726496762  0.310857403193
OC2D3  HGP5  1  0.187088730809  0.310857403193
OC2D3 HGPAM1  1  0.202679458377  0.137500270836
OC2D3 HGPAM2  1  0.202679458377  0.144938011577
OC2D3 HGPAM3  1  0.202234009018  0.158771636762
OC2D3 HGR51  1  0.245727684437  0.251040000000
OC2D3 HGR52  1  0.204906705172  0.310857403193
OC2D3 HGR53  1  0.187088730809  0.310857403193
OC2D3 HGR61  1  0.245727684437  0.251040000000
OC2D3 HGR62  1  0.222724679535  0.310857403193
OC2D3 HGR63  1  0.204906705172  0.310857403193
OC2D3 HGR71  1  0.245727684437  0.251040000000
OC2D3 HGTIP3  1  0.144726496762  0.310857403193
OC2D3 CG1T1  1  0.288651184677  0.592298365893
OC2D3 CG1T2  1  0.302237390129  0.465609837422
OC2D3 CG1N1  1  0.291323880832  0.614919905028
OC2D3 CG2D1  1  0.310923652631  0.377952093472
OC2D3 CG2D2  1  0.310032753913  0.366667388896
OC2D3 CG2D1O  1  0.310923652631  0.377952093472
OC2D3 CG2D2O  1  0.310923652631  0.377952093472
OC2D3 CG2DC1  1  0.310923652631  0.377952093472
OC2D3 CG2DC2  1  0.310923652631  0.377952093472
OC2D3 CG2DC3  1  0.310032753913  0.366667388896
OC2D3 CG2N1  1  0.302905564168  0.480705002262
OC2D3 CG2N2  1  0.302905564168  0.480705002262
OC2D3 CG2O1  1  0.302905564168  0.480705002262
OC2D3 CG2O2  1  0.276178602624  0.453727744975
OC2D3 CG2O3  1  0.302905564168  0.383469934154
OC2D3 CG2O4  1  0.285087589805  0.355024172698
OC2D3 CG2O5  1  0.302905564168  0.434814034732
OC2D3 CG2O6  1  0.302905564168  0.383469934154
OC2D3 CG2O7  1  0.263973290185  0.349056954894
OC2D3 CG2R51  1  0.311814551349  0.324091246411
OC2D3 CG2R52  1  0.320723538531  0.204973301676
OC2D3 CG2R53  1  0.320723538531  0.204973301676
OC2D3 CG2R57  1  0.311814551349  0.324091246411
OC2D3 CG25C1  1  0.310923652631  0.377952093472
OC2D3 CG25C2  1  0.310923652631  0.377952093472
OC2D3 CG251O  1  0.310923652631  0.377952093472
OC2D3 CG252O  1  0.310923652631  0.377952093472
OC2D3 CG2R61  1  0.302228481142  0.383469934154
OC2D3 CG2R62  1  0.293996576986  0.434814034732
OC2D3 CG2R63  1  0.293996576986  0.458334236120
OC2D3 CG2R64  1  0.311814551349  0.289876023155
OC2D3 CG2R66  1  0.293996576986  0.383469934154
OC2D3 CG2R67  1  0.302228481142  0.383469934154
OC2D3 CG2RC0  1  0.290432982114  0.456036806936
OC2D3 CG2R71  1  0.302442296834  0.375162741007
OC2D3 CG2RC7  1  0.290432982114  0.456036806936
OC2D3 CG301  1  0.293996576986  0.144938011577
OC2D3 CG302  1  0.329632525712  0.204973301676
OC2D3 CG311  1  0.293996576986  0.144938011577
OC2D3 CG312  1  0.307360057758  0.297034533750
OC2D3 CG314  1  0.293996576986  0.144938011577
OC2D3 CG321  1  0.293996576986  0.144938011577
OC2D3 CG322  1  0.293996576986  0.355024172698
OC2D3 CG323  1  0.320723538531  0.480705002262
OC2D3 CG324  1  0.293996576986  0.144938011577
OC2D3 CG331  1  0.293996576986  0.144938011577
OC2D3 CG334  1  0.293996576986  0.144938011577
OC2D3 CG3C50  1  0.293996576986  0.144938011577
OC2D3 CG3C51  1  0.293996576986  0.144938011577
OC2D3 CG3C52  1  0.293996576986  0.144938011577
OC2D3 CG3C53  1  0.293996576986  0.144938011577
OC2D3 CG3C54  1  0.293996576986  0.144938011577
OC2D3 CG3C31  1  0.293996576986  0.144938011577
OC2D3 CG3C41  1  0.293996576986  0.144938011577
OC2D3 CG3RC1  1  0.293996576986  0.144938011577
OC2D3 CG3AM0  1  0.300232868013  0.383469934154
OC2D3 CG3AM1  1  0.301123766731  0.404789837027
OC2D3 CG3AM2  1  0.302014665450  0.409946603352
OC2D3 NG1T1  1  0.284196691087  0.614919905028
OC2D3 NG2D1  1  0.289542083396  0.648182492821
OC2D3 NG2S0  1  0.289542083396  0.014493801158
OC2D3 NG2S1  1  0.262815121851  0.648182492821
OC2D3 NG2S2  1  0.289542083396  0.648182492821
OC2D3 NG2S3  1  0.289542083396  0.648182492821
OC2D3 NG2O1  1  0.289542083396  0.648182492821
OC2D3 NG2P1  1  0.289542083396  0.648182492821
OC2D3 NG2R43  1  0.289542083396  0.648182492821
OC2D3 NG2R50  1  0.289542083396  0.648182492821
OC2D3 NG2R51  1  0.289542083396  0.648182492821
OC2D3 NG2R52  1  0.289542083396  0.648182492821
OC2D3 NG2R53  1  0.289542083396  0.648182492821
OC2D3 NG2R57  1  0.289542083396  0.648182492821
OC2D3 NG2R60  1  0.293105678268  0.355024172698
OC2D3 NG2R61  1  0.289542083396  0.648182492821
OC2D3 NG2R62  1  0.308250956477  0.324091246411
OC2D3 NG2R67  1  0.289542083396  0.648182492821
OC2D3 NG2RC0  1  0.289542083396  0.648182492821
OC2D3 NG301  1  0.302905564168  0.271154190821
OC2D3 NG311  1  0.302905564168  0.307459952514
OC2D3 NG321  1  0.302014665450  0.355024172698
OC2D3 NG331  1  0.301123766731  0.383469934154
OC2D3 NG3C51  1  0.289542083396  0.648182492821
OC2D3 NG3N1  1  0.307360057758  0.355024172698
OC2D3 NG3P0  1  0.289542083396  0.648182492821
OC2D3 NG3P1  1  0.289542083396  0.648182492821
OC2D3 NG3P2  1  0.289542083396  0.648182492821
OC2D3 NG3P3  1  0.289542083396  0.648182492821
OC2D3 OG2D1  1  0.249451641079  0.502080000000
OC2D3 OG2D2  1  0.276178602624  0.502080000000
OC2D3 OG2D3  1  0.249451641079  0.502080000000
OC2D3 OG2D4  1  0.276178602624  0.502080000000
OC2D3 OG2D5  1  0.275465883649  0.588740986173
OC2D3 OG2N1  1  0.276178602624  0.502080000000
OC2D3 OG2P1  1  0.276178602624  0.502080000000
OC2D3 OG2R50  1  0.276178602624  0.502080000000
OC2D3 OG3R60  1  0.271724109033  0.458334236120
OC2D3 OG301  1  0.271724109033  0.458334236120
OC2D3 OG302  1  0.271724109033  0.458334236120
OC2D3 OG303  1  0.271724109033  0.458334236120
OC2D3 OG304  1  0.271724109033  0.458334236120
OC2D3 OG311  1  0.281969444291  0.635251912639
OC2D3 OG312  1  0.280633096214  0.502080000000
OC2D3 OG3C31  1  0.271724109033  0.458334236120
OC2D3 OG3C51  1  0.271724109033  0.458334236120
OC2D3 OG3C61  1  0.271724109033  0.458334236120
OC2D3 OGTIP3  1  0.282254531881  0.565258245152
OC2D3 SG2D1  1  0.307360057758  1.089448042267
OC2D3 SG2R50  1  0.302905564168  0.972273739232
OC2D3 SG311  1  0.302905564168  0.972273739232
OC2D3 SG301  1  0.300678317372  0.893457908130
OC2D3 SG302  1  0.320723538531  0.993644945843
OC2D3 SG3O1  1  0.311814551349  0.993644945843
OC2D3 SG3O2  1  0.302905564168  0.857464840095
OC2D3 SG3O3  1  0.302905564168  0.857464840095
OC2D3  FGA1  1  0.269942311597  0.532536259047
OC2D3  FGA2  1  0.269942311597  0.469652835188
OC2D3  FGA3  1  0.267269615442  0.451406871724
OC2D3  FGP1  1  0.267269615442  0.451406871724
OC2D3  FGR1  1  0.276178602624  0.502080000000
OC2D3 CLGA1  1  0.294887475704  0.848846884285
OC2D3 CLGA3  1  0.294887475704  0.806980695680
OC2D3 BRGA1  1  0.300232868013  1.004160000000
OC2D3 BRGA2  1  0.307360057758  1.055164651417
OC2D3 BRGA3  1  0.302905564168  1.065072518094
OC2D3   SOD  1  0.250409357201  0.313883668846
OC2D3   CLA  1  0.326959829558  0.561342505072
OC2D3   PG0  1  0.316269044940  1.108562623941
OC2D3   PG1  1  0.316269044940  1.108562623941
OC2D3   PG2  1  0.316269044940  1.108562623941
OC2D3  ALG1  1  0.302905564168  1.168527606863
OC2D3   LPH  1  0.124725820540  0.000000000000
OC2D3 CLGR1  1  0.290432982114  0.695098284849
OC2D3 BRGR1  1  0.301123766731  0.819893206704
OC2D3  IGR1  1  0.324287133403  1.045162865012
OC2D3 SG2P1  1  0.311253285157  1.151139989652
OC2D3 OG2S1  1  0.274361169238  0.546744910407
OC2D3 SG2P2  1  0.307769871169  1.141151004963
OC2D3 SEGD1  1  0.318496291735  1.144000784335
OC2D3 BG201  1  0.351904993665  0.282536198318
OC2D3 CC301  1  0.293996576986  0.144938011577
OC2D3 CC3062  1  0.293996576986  0.144938011577
OC2D3 CC311  1  0.293996576986  0.144938011577
OC2D3 CC3161  1  0.293996576986  0.144938011577
OC2D3 CC3162  1  0.293996576986  0.144938011577
OC2D3 CC3163  1  0.293996576986  0.144938011577
OC2D3 CC321  1  0.293996576986  0.144938011577
OC2D3 CC3261  1  0.293996576986  0.144938011577
OC2D3 CC3263  1  0.293996576986  0.144938011577
OC2D3 CC331  1  0.293996576986  0.144938011577
OC2D3 CC2O1  1  0.302905564168  0.480705002262
OC2D3 CC2O2  1  0.302905564168  0.383469934154
OC2D3 CC2O3  1  0.302905564168  0.434814034732
OC2D3 CC2O4  1  0.285087589805  0.355024172698
OC2D3 CC2O5  1  0.276178602624  0.453727744975
OC2D3 OC2D1  1  0.249451641079  0.502080000000
OC2D3 OC2D2  1  0.276178602624  0.502080000000
OC2D3 OC2D3  1  0.249451641079  0.502080000000
OC2D3 OC2D4  1  0.249451641079  0.502080000000
OC2D3 OC3C61  1  0.271724109033  0.458334236120
OC2D3 OC311  1  0.281969444291  0.635251912639
OC2D3 NC2D1  1  0.262815121851  0.648182492821
OC2D3  HCP1  1  0.144726496762  0.310857403193
OC2D3  HCA1  1  0.244106248770  0.307459952514
OC2D3  HCA2  1  0.244106248770  0.271154190821
OC2D3  HCA3  1  0.244106248770  0.224537002029
OC2D3 CC312  1  0.293996576986  0.144938011577
OC2D3 CC322  1  0.293996576986  0.144938011577
OC2D3  HCR1  1  0.195997717991  0.310857403193
OC2D3 HCA3M  1  0.244106248770  0.224537002029
OC2D3 CC321C  1  0.293996576986  0.144938011577
OC2D3 CC321D  1  0.293996576986  0.144938011577
OC2D3 CC311C  1  0.293996576986  0.144938011577
OC2D3 CC311D  1  0.293996576986  0.144938011577
OC2D3 OC301  1  0.271724109033  0.458334236120
OC2D3 OC302  1  0.271724109033  0.458334236120
OC2D3 HCP1M  1  0.144726496762  0.310857403193
OC2D3 OC311M  1  0.281969444291  0.635251912639
OC2D3 OC3C5M  1  0.271724109033  0.458334236120
OC2D3 CC322C  1  0.293996576986  0.144938011577
OC2D3 HCA2C2  1  0.240542653898  0.271154190821
OC2D3 CC312C  1  0.293996576986  0.144938011577
OC2D3 HCA1C2  1  0.244106248770  0.307459952514
OC2D3 OC3C51  1  0.271724109033  0.458334236120
OC2D3 CC3152  1  0.293996576986  0.144938011577
OC2D3 CC3051  1  0.293996576986  0.144938011577
OC2D3 CC3251  1  0.293996576986  0.144938011577
OC2D3 CC3151  1  0.293996576986  0.144938011577
OC2D3 CC3153  1  0.293996576986  0.144938011577
OC2D3 OC2DP  1  0.276178602624  0.502080000000
OC2D3 OC312  1  0.282414893650  0.565258245152
OC2D3 OC30P  1  0.282414893650  0.565258245152
OC2D3    PC  1  0.316269044940  1.108562623941
OC2D3    SC  1  0.311814551349  0.993644945843
OC2D3 CC312D  1  0.293996576986  0.144938011577
OC2D3 OC303  1  0.271724109033  0.458334236120
OC2D3 NC311  1  0.302905564168  0.307459952514
OC2D3   HN1  1  0.144726496762  0.310857403193
OC2D3   HN2  1  0.144726496762  0.310857403193
OC2D3   HN3  1  0.222724679535  0.310857403193
OC2D3   HN4  1  0.144726496762  0.310857403193
OC2D3   HN5  1  0.144726496762  0.310857403193
OC2D3   HN6  1  0.242324451334  0.214977812437
OC2D3   HN7  1  0.242324451334  0.214977812437
OC2D3   HN8  1  0.244106248770  0.242527681224
OC2D3   HN9  1  0.244106248770  0.224537002029
OC2D3   NN1  1  0.289542083396  0.648182492821
OC2D3   NN2  1  0.289542083396  0.648182492821
OC2D3  NN2B  1  0.289542083396  0.648182492821
OC2D3  NN2G  1  0.289542083396  0.648182492821
OC2D3  NN2U  1  0.289542083396  0.648182492821
OC2D3   NN3  1  0.289542083396  0.648182492821
OC2D3  NN3A  1  0.289542083396  0.648182492821
OC2D3  NN3G  1  0.289542083396  0.648182492821
OC2D3   NN4  1  0.289542083396  0.648182492821
OC2D3   NN6  1  0.289542083396  0.648182492821
OC2D3   ON1  1  0.276178602624  0.502080000000
OC2D3  ON1C  1  0.276178602624  0.502080000000
OC2D3   ON2  1  0.282414893650  0.565258245152
OC2D3   ON3  1  0.276178602624  0.502080000000
OC2D3   ON4  1  0.282414893650  0.565258245152
OC2D3   ON5  1  0.282414893650  0.565258245152
OC2D3   ON6  1  0.282414893650  0.565258245152
OC2D3  ON6B  1  0.282414893650  0.565258245152
OC2D3   CN1  1  0.293996576986  0.458334236120
OC2D3  CN1T  1  0.293996576986  0.458334236120
OC2D3   CN2  1  0.293996576986  0.458334236120
OC2D3   CN3  1  0.293996576986  0.434814034732
OC2D3  CN3T  1  0.293996576986  0.434814034732
OC2D3   CN4  1  0.293996576986  0.396929091904
OC2D3   CN5  1  0.293996576986  0.396929091904
OC2D3  CN5G  1  0.293996576986  0.396929091904
OC2D3   CN7  1  0.293996576986  0.144938011577
OC2D3  CN7B  1  0.293996576986  0.144938011577
OC2D3   CN8  1  0.293996576986  0.144938011577
OC2D3  CN8B  1  0.293996576986  0.144938011577
OC2D3   CN9  1  0.293996576986  0.144938011577
OC2D3     P  1  0.316269044940  1.108562623941
OC2D3    P2  1  0.316269044940  1.108562623941
OC2D3    P3  1  0.316269044940  1.108562623941
OC2D3    P4  1  0.316269044940  1.108562623941
OC2D3   HOL  1  0.144726496762  0.310857403193
OC2D3  HAL1  1  0.242324451334  0.214977812437
OC2D3  HAL2  1  0.244106248770  0.242527681224
OC2D3  HAL3  1  0.244106248770  0.224537002029
OC2D3   HBL  1  0.242324451334  0.214977812437
OC2D3   HCL  1  0.144726496762  0.310857403193
OC2D3    HL  1  0.187088730809  0.310857403193
OC2D3  HEL1  1  0.236088160307  0.255189702614
OC2D3  HEL2  1  0.236979059025  0.233705521373
OC2D3    CL  1  0.302905564168  0.383469934154
OC2D3   CCL  1  0.302905564168  0.383469934154
OC2D3  CTL1  1  0.293996576986  0.144938011577
OC2D3  CTL2  1  0.293996576986  0.144938011577
OC2D3  CTL3  1  0.293996576986  0.144938011577
OC2D3  CTL5  1  0.293996576986  0.144938011577
OC2D3  CEL1  1  0.310923652631  0.377952093472
OC2D3  CEL2  1  0.310032753913  0.366667388896
OC2D3  CRL1  1  0.293996576986  0.144938011577
OC2D3  CRL2  1  0.293996576986  0.144938011577
OC2D3   OBL  1  0.249451641079  0.502080000000
OC2D3   OCL  1  0.276178602624  0.502080000000
OC2D3   O2L  1  0.276178602624  0.502080000000
OC2D3   OHL  1  0.282414893650  0.565258245152
OC2D3   OSL  1  0.271724109033  0.458334236120
OC2D3  OSLP  1  0.271724109033  0.458334236120
OC2D3  NH3L  1  0.289542083396  0.648182492821
OC2D3   NTL  1  0.289542083396  0.648182492821
OC2D3    SL  1  0.311814551349  0.993644945843
OC2D3    PL  1  0.316269044940  1.108562623941
OC2D3 HCA1A  1  0.244106248770  0.307459952514
OC2D3 HCA2A  1  0.244106248770  0.271154190821
OC2D3 HCA3A  1  0.244106248770  0.224537002029
OC2D3 CC30A  1  0.293996576986  0.144938011577
OC2D3 CC31A  1  0.293996576986  0.144938011577
OC2D3 CC32A  1  0.293996576986  0.144938011577
OC2D3 CC33A  1  0.293996576986  0.144938011577
OC2D3 CC326A  1  0.293996576986  0.144938011577
OC2D3 HCA25A  1  0.240542653898  0.271154190821
OC2D3 CC325A  1  0.293996576986  0.144938011577
OC2D3 CC325B  1  0.293996576986  0.144938011577
OC2D3 OC305A  1  0.271724109033  0.458334236120
OC2D3 OC30A  1  0.271724109033  0.458334236120
OC2D3  HSIO  1  0.144726496762  0.310857403193
OC2D3  HSIA  1  0.242324451334  0.214977812437
OC2D3   HAL  1  0.242324451334  0.214977812437
OC2D3    AL  1  0.320723538531  1.168527606863
OC2D3    SI  1  0.320723538531  1.122685010143
OC2D3  SIH3  1  0.320723538531  1.122685010143
OC2D3  OSIH  1  0.282414893650  0.565258245152
OC2D3  OSIE  1  0.282414893650  0.565258245152
OC2D3  OSIA  1  0.282414893650  0.565258245152
OC2D3   OAL  1  0.282414893650  0.565258245152
OC2D3    HT  1  0.144726496762  0.310857403193
OC2D3    OT  1  0.282254531881  0.565258245152
OC2D3   DUM  1  0.124725820540  0.000000000000
OC2D3    CM  1  0.311814551349  0.480705002262
OC2D3   CPA  1  0.285087589805  0.434814034732
OC2D3   CPB  1  0.285087589805  0.434814034732
OC2D3   CPM  1  0.285087589805  0.434814034732
OC2D3   CST  1  0.263973290185  0.349056954894
OC2D3  CT1X  1  0.293996576986  0.144938011577
OC2D3  CT2X  1  0.293996576986  0.144938011577
OC2D3  CT3X  1  0.293996576986  0.144938011577
OC2D3    HB  1  0.242324451334  0.214977812437
OC2D3   NPH  1  0.289542083396  0.648182492821
OC2D3    OM  1  0.276178602624  0.502080000000
OC2D3   OST  1  0.275465883649  0.588740986173
OC2D3   POT  1  0.281858081952  0.427505715330
OC2D3   CAL  1  0.246511675309  0.502080000000
OC2D3    MG  1  0.230297318639  0.177512086349
OC2D3   CES  1  0.311814551349  0.631770145543
OC2D3    ZN  1  0.221833780817  0.724690057887
OC2D3    FE  1  0.182634237219  0.000000000000
OC2D3    HE  1  0.256578830824  0.211381046583
OC2D3    NE  1  0.261033324415  0.425041684920
OC2D3  CLAL  1  0.294727113935  0.251040000000
OC2D3    AG  1  0.256356106145  3.095028982611
OC2D3    AU  1  0.256177926401  3.333574266279
OC2D3    CU  1  0.241255372872  3.148859609192
OC2D3    NI  1  0.238404496974  3.445137205976
OC2D3    PB  1  0.283528517048  2.480939130571
OC2D3    PD  1  0.250297994862  3.594345799725
OC2D3    PT  1  0.251456163195  4.047898370266
OC2D3   CAP  1  0.302228481142  0.383469934154
OC2D3    FA  1  0.276178602624  0.502080000000
OC2D3    CN  1  0.280633096214  0.648182492821
OC2D3    NC  1  0.289542083396  1.122685010143
OC2D3   OCA  1  0.249451641079  0.502080000000
OC2D3   COA  1  0.302905564168  0.480705002262
OC2D3   CF1  1  0.293996576986  0.355024172698
OC2D3   CF2  1  0.307360057758  0.297034533750
OC2D3   CF3  1  0.329632525712  0.204973301676
OC2D3   HF1  1  0.242324451334  0.242527681224
OC2D3   HF2  1  0.240542653898  0.251040000000
OC2D3    F1  1  0.269942311597  0.532536259047
OC2D3    F2  1  0.269942311597  0.469652835188
OC2D3    F3  1  0.267269615442  0.451406871724
OC2D3    OX  1  0.276178602624  0.502080000000
OC2D3    HX  1  0.144726496762  0.310857403193
OC2D3  HPER  1  0.144726496762  0.310857403193
OC2D3  OPER  1  0.273882756627  0.654375459843
OC2D3   LIT  1  0.240319929218  0.069961684782
OC2D3   RUB  1  0.293996576986  0.561342505072
OC2D3   BAR  1  0.293105678268  0.561342505072
OC2D3   CAD  1  0.245620776591  0.502080000000
OC2D3  ON2B  1  0.282414893650  0.565258245152
OC2D3    SP  1  0.320723538531  0.972273739232
OC2D3   HNP  1  0.245727684437  0.251040000000
OC2D3  HNE1  1  0.236088160307  0.255189702614
OC2D3  HNE2  1  0.236979059025  0.233705521373
OC2D3  CN3D  1  0.293996576986  0.434814034732
OC2D3  CNE1  1  0.310923652631  0.377952093472
OC2D3  CNE2  1  0.310032753913  0.366667388896
OC2D3   CNA  1  0.302228481142  0.383469934154
OC2D3  CNA2  1  0.293996576986  0.383469934154
OC2D3   CNG  1  0.302905564168  0.480705002262
OC2D3  NN1C  1  0.289542083396  0.648182492821
OC2D3  NN2C  1  0.289542083396  0.648182492821
OC2D3  NN3I  1  0.289542083396  0.648182492821
OC2D3   NNG  1  0.289542083396  0.648182492821
OC2D3   FNA  1  0.276178602624  0.502080000000
OC2D3  ON2M  1  0.271724109033  0.458334236120
OC2D3   CN6  1  0.293996576986  0.144938011577
OC2D3  CN7E  1  0.293996576986  0.144938011577
OC2D3  CT2P  1  0.293996576986  0.144938011577
OC2D3  CTD1  1  0.293996576986  0.144938011577
OC2D3  CPD1  1  0.293996576986  0.144938011577
OC2D3  CC1A  1  0.310923652631  0.377952093472
OC2D3  CC1B  1  0.310923652631  0.377952093472
OC2D3   CC2  1  0.310032753913  0.366667388896
OC2D3   NS1  1  0.289542083396  0.648182492821
OC2D3   NS2  1  0.289542083396  0.648182492821
OC2D3   NHL  1  0.262815121851  0.648182492821
OC2D3  CTO1  1  0.293996576986  0.144938011577
OC2D3  CEL3  1  0.310923652631  0.377952093472
OC2D3  CTO2  1  0.293996576986  0.144938011577
OC2D3  HN3B  1  0.204906705172  0.310857403193
OC2D3  CN1A  1  0.302905564168  0.383469934154
OC2D3  CN3A  1  0.285087589805  0.614919905028
OC2D3  CN3B  1  0.285087589805  0.614919905028
OC2D3  CN3C  1  0.285087589805  0.614919905028
OC2D4     C  1  0.302905564168  0.480705002262
OC2D4    CA  1  0.302228481142  0.383469934154
OC2D4    CC  1  0.302905564168  0.383469934154
OC2D4    CD  1  0.302905564168  0.383469934154
OC2D4   CE1  1  0.310923652631  0.377952093472
OC2D4   CE2  1  0.310032753913  0.366667388896
OC2D4   CP1  1  0.293996576986  0.144938011577
OC2D4   CP2  1  0.293996576986  0.144938011577
OC2D4   CP3  1  0.293996576986  0.144938011577
OC2D4  CPH1  1  0.285087589805  0.324091246411
OC2D4  CPH2  1  0.285087589805  0.324091246411
OC2D4    CS  1  0.320723538531  0.480705002262
OC2D4   CPT  1  0.290432982114  0.456036806936
OC2D4    CY  1  0.302014665450  0.391600943002
OC2D4   CAI  1  0.302014665450  0.391600943002
OC2D4    CT  1  0.293996576986  0.144938011577
OC2D4   CT1  1  0.293996576986  0.144938011577
OC2D4   CT2  1  0.293996576986  0.144938011577
OC2D4  CT2A  1  0.293996576986  0.144938011577
OC2D4   CT3  1  0.293996576986  0.144938011577
OC2D4    C3  1  0.327405278917  0.204973301676
OC2D4     H  1  0.144726496762  0.310857403193
OC2D4    HA  1  0.242324451334  0.214977812437
OC2D4   HB1  1  0.242324451334  0.214977812437
OC2D4   HB2  1  0.244106248770  0.242527681224
OC2D4   HE1  1  0.236088160307  0.255189702614
OC2D4   HE2  1  0.236979059025  0.233705521373
OC2D4    HC  1  0.144726496762  0.310857403193
OC2D4    HP  1  0.245727684437  0.251040000000
OC2D4   HR1  1  0.204906705172  0.310857403193
OC2D4   HR2  1  0.187088730809  0.310857403193
OC2D4   HR3  1  0.255509752363  0.128005785869
OC2D4    HS  1  0.164816262856  0.458334236120
OC2D4   HA1  1  0.244106248770  0.307459952514
OC2D4   HA2  1  0.244106248770  0.267252488258
OC2D4   HA3  1  0.244106248770  0.224537002029
OC2D4     N  1  0.289542083396  0.014493801158
OC2D4   NC2  1  0.289542083396  0.648182492821
OC2D4   NH1  1  0.262815121851  0.648182492821
OC2D4   NH2  1  0.289542083396  0.648182492821
OC2D4   NH3  1  0.289542083396  0.648182492821
OC2D4    NP  1  0.289542083396  0.648182492821
OC2D4   NR1  1  0.289542083396  0.648182492821
OC2D4   NR2  1  0.289542083396  0.648182492821
OC2D4   NR3  1  0.289542083396  0.648182492821
OC2D4    NY  1  0.289542083396  0.648182492821
OC2D4     O  1  0.249451641079  0.502080000000
OC2D4    OB  1  0.249451641079  0.502080000000
OC2D4    OC  1  0.276178602624  0.502080000000
OC2D4   OH1  1  0.282414893650  0.565258245152
OC2D4    OS  1  0.282414893650  0.565258245152
OC2D4     S  1  0.302905564168  0.972273739232
OC2D4    SM  1  0.300678317372  0.893457908130
OC2D4    SS  1  0.320723538531  0.993644945843
OC2D4  HGA1  1  0.244106248770  0.307459952514
OC2D4  HGA2  1  0.244106248770  0.271154190821
OC2D4  HGA3  1  0.244106248770  0.224537002029
OC2D4  HGA4  1  0.236088160307  0.255189702614
OC2D4  HGA5  1  0.236979059025  0.233705521373
OC2D4  HGA6  1  0.242324451334  0.242527681224
OC2D4  HGA7  1  0.240542653898  0.251040000000
OC2D4 HGAAM0  1  0.238760856462  0.242527681224
OC2D4 HGAAM1  1  0.238760856462  0.242527681224
OC2D4 HGAAM2  1  0.236979059025  0.289876023155
OC2D4  HGP1  1  0.144726496762  0.310857403193
OC2D4  HGP2  1  0.144726496762  0.310857403193
OC2D4  HGP3  1  0.164816262856  0.458334236120
OC2D4  HGP4  1  0.144726496762  0.310857403193
OC2D4  HGP5  1  0.187088730809  0.310857403193
OC2D4 HGPAM1  1  0.202679458377  0.137500270836
OC2D4 HGPAM2  1  0.202679458377  0.144938011577
OC2D4 HGPAM3  1  0.202234009018  0.158771636762
OC2D4 HGR51  1  0.245727684437  0.251040000000
OC2D4 HGR52  1  0.204906705172  0.310857403193
OC2D4 HGR53  1  0.187088730809  0.310857403193
OC2D4 HGR61  1  0.245727684437  0.251040000000
OC2D4 HGR62  1  0.222724679535  0.310857403193
OC2D4 HGR63  1  0.204906705172  0.310857403193
OC2D4 HGR71  1  0.245727684437  0.251040000000
OC2D4 HGTIP3  1  0.144726496762  0.310857403193
OC2D4 CG1T1  1  0.288651184677  0.592298365893
OC2D4 CG1T2  1  0.302237390129  0.465609837422
OC2D4 CG1N1  1  0.291323880832  0.614919905028
OC2D4 CG2D1  1  0.310923652631  0.377952093472
OC2D4 CG2D2  1  0.310032753913  0.366667388896
OC2D4 CG2D1O  1  0.310923652631  0.377952093472
OC2D4 CG2D2O  1  0.310923652631  0.377952093472
OC2D4 CG2DC1  1  0.310923652631  0.377952093472
OC2D4 CG2DC2  1  0.310923652631  0.377952093472
OC2D4 CG2DC3  1  0.310032753913  0.366667388896
OC2D4 CG2N1  1  0.302905564168  0.480705002262
OC2D4 CG2N2  1  0.302905564168  0.480705002262
OC2D4 CG2O1  1  0.302905564168  0.480705002262
OC2D4 CG2O2  1  0.276178602624  0.453727744975
OC2D4 CG2O3  1  0.302905564168  0.383469934154
OC2D4 CG2O4  1  0.285087589805  0.355024172698
OC2D4 CG2O5  1  0.302905564168  0.434814034732
OC2D4 CG2O6  1  0.302905564168  0.383469934154
OC2D4 CG2O7  1  0.263973290185  0.349056954894
OC2D4 CG2R51  1  0.311814551349  0.324091246411
OC2D4 CG2R52  1  0.320723538531  0.204973301676
OC2D4 CG2R53  1  0.320723538531  0.204973301676
OC2D4 CG2R57  1  0.311814551349  0.324091246411
OC2D4 CG25C1  1  0.310923652631  0.377952093472
OC2D4 CG25C2  1  0.310923652631  0.377952093472
OC2D4 CG251O  1  0.310923652631  0.377952093472
OC2D4 CG252O  1  0.310923652631  0.377952093472
OC2D4 CG2R61  1  0.302228481142  0.383469934154
OC2D4 CG2R62  1  0.293996576986  0.434814034732
OC2D4 CG2R63  1  0.293996576986  0.458334236120
OC2D4 CG2R64  1  0.311814551349  0.289876023155
OC2D4 CG2R66  1  0.293996576986  0.383469934154
OC2D4 CG2R67  1  0.302228481142  0.383469934154
OC2D4 CG2RC0  1  0.290432982114  0.456036806936
OC2D4 CG2R71  1  0.302442296834  0.375162741007
OC2D4 CG2RC7  1  0.290432982114  0.456036806936
OC2D4 CG301  1  0.293996576986  0.144938011577
OC2D4 CG302  1  0.329632525712  0.204973301676
OC2D4 CG311  1  0.293996576986  0.144938011577
OC2D4 CG312  1  0.307360057758  0.297034533750
OC2D4 CG314  1  0.293996576986  0.144938011577
OC2D4 CG321  1  0.293996576986  0.144938011577
OC2D4 CG322  1  0.293996576986  0.355024172698
OC2D4 CG323  1  0.320723538531  0.480705002262
OC2D4 CG324  1  0.293996576986  0.144938011577
OC2D4 CG331  1  0.293996576986  0.144938011577
OC2D4 CG334  1  0.293996576986  0.144938011577
OC2D4 CG3C50  1  0.293996576986  0.144938011577
OC2D4 CG3C51  1  0.293996576986  0.144938011577
OC2D4 CG3C52  1  0.293996576986  0.144938011577
OC2D4 CG3C53  1  0.293996576986  0.144938011577
OC2D4 CG3C54  1  0.293996576986  0.144938011577
OC2D4 CG3C31  1  0.293996576986  0.144938011577
OC2D4 CG3C41  1  0.293996576986  0.144938011577
OC2D4 CG3RC1  1  0.293996576986  0.144938011577
OC2D4 CG3AM0  1  0.300232868013  0.383469934154
OC2D4 CG3AM1  1  0.301123766731  0.404789837027
OC2D4 CG3AM2  1  0.302014665450  0.409946603352
OC2D4 NG1T1  1  0.284196691087  0.614919905028
OC2D4 NG2D1  1  0.289542083396  0.648182492821
OC2D4 NG2S0  1  0.289542083396  0.014493801158
OC2D4 NG2S1  1  0.262815121851  0.648182492821
OC2D4 NG2S2  1  0.289542083396  0.648182492821
OC2D4 NG2S3  1  0.289542083396  0.648182492821
OC2D4 NG2O1  1  0.289542083396  0.648182492821
OC2D4 NG2P1  1  0.289542083396  0.648182492821
OC2D4 NG2R43  1  0.289542083396  0.648182492821
OC2D4 NG2R50  1  0.289542083396  0.648182492821
OC2D4 NG2R51  1  0.289542083396  0.648182492821
OC2D4 NG2R52  1  0.289542083396  0.648182492821
OC2D4 NG2R53  1  0.289542083396  0.648182492821
OC2D4 NG2R57  1  0.289542083396  0.648182492821
OC2D4 NG2R60  1  0.293105678268  0.355024172698
OC2D4 NG2R61  1  0.289542083396  0.648182492821
OC2D4 NG2R62  1  0.308250956477  0.324091246411
OC2D4 NG2R67  1  0.289542083396  0.648182492821
OC2D4 NG2RC0  1  0.289542083396  0.648182492821
OC2D4 NG301  1  0.302905564168  0.271154190821
OC2D4 NG311  1  0.302905564168  0.307459952514
OC2D4 NG321  1  0.302014665450  0.355024172698
OC2D4 NG331  1  0.301123766731  0.383469934154
OC2D4 NG3C51  1  0.289542083396  0.648182492821
OC2D4 NG3N1  1  0.307360057758  0.355024172698
OC2D4 NG3P0  1  0.289542083396  0.648182492821
OC2D4 NG3P1  1  0.289542083396  0.648182492821
OC2D4 NG3P2  1  0.289542083396  0.648182492821
OC2D4 NG3P3  1  0.289542083396  0.648182492821
OC2D4 OG2D1  1  0.249451641079  0.502080000000
OC2D4 OG2D2  1  0.276178602624  0.502080000000
OC2D4 OG2D3  1  0.249451641079  0.502080000000
OC2D4 OG2D4  1  0.276178602624  0.502080000000
OC2D4 OG2D5  1  0.275465883649  0.588740986173
OC2D4 OG2N1  1  0.276178602624  0.502080000000
OC2D4 OG2P1  1  0.276178602624  0.502080000000
OC2D4 OG2R50  1  0.276178602624  0.502080000000
OC2D4 OG3R60  1  0.271724109033  0.458334236120
OC2D4 OG301  1  0.271724109033  0.458334236120
OC2D4 OG302  1  0.271724109033  0.458334236120
OC2D4 OG303  1  0.271724109033  0.458334236120
OC2D4 OG304  1  0.271724109033  0.458334236120
OC2D4 OG311  1  0.281969444291  0.635251912639
OC2D4 OG312  1  0.280633096214  0.502080000000
OC2D4 OG3C31  1  0.271724109033  0.458334236120
OC2D4 OG3C51  1  0.271724109033  0.458334236120
OC2D4 OG3C61  1  0.271724109033  0.458334236120
OC2D4 OGTIP3  1  0.282254531881  0.565258245152
OC2D4 SG2D1  1  0.307360057758  1.089448042267
OC2D4 SG2R50  1  0.302905564168  0.972273739232
OC2D4 SG311  1  0.302905564168  0.972273739232
OC2D4 SG301  1  0.300678317372  0.893457908130
OC2D4 SG302  1  0.320723538531  0.993644945843
OC2D4 SG3O1  1  0.311814551349  0.993644945843
OC2D4 SG3O2  1  0.302905564168  0.857464840095
OC2D4 SG3O3  1  0.302905564168  0.857464840095
OC2D4  FGA1  1  0.269942311597  0.532536259047
OC2D4  FGA2  1  0.269942311597  0.469652835188
OC2D4  FGA3  1  0.267269615442  0.451406871724
OC2D4  FGP1  1  0.267269615442  0.451406871724
OC2D4  FGR1  1  0.276178602624  0.502080000000
OC2D4 CLGA1  1  0.294887475704  0.848846884285
OC2D4 CLGA3  1  0.294887475704  0.806980695680
OC2D4 BRGA1  1  0.300232868013  1.004160000000
OC2D4 BRGA2  1  0.307360057758  1.055164651417
OC2D4 BRGA3  1  0.302905564168  1.065072518094
OC2D4   SOD  1  0.250409357201  0.313883668846
OC2D4   CLA  1  0.326959829558  0.561342505072
OC2D4   PG0  1  0.316269044940  1.108562623941
OC2D4   PG1  1  0.316269044940  1.108562623941
OC2D4   PG2  1  0.316269044940  1.108562623941
OC2D4  ALG1  1  0.302905564168  1.168527606863
OC2D4   LPH  1  0.124725820540  0.000000000000
OC2D4 CLGR1  1  0.290432982114  0.695098284849
OC2D4 BRGR1  1  0.301123766731  0.819893206704
OC2D4  IGR1  1  0.324287133403  1.045162865012
OC2D4 SG2P1  1  0.311253285157  1.151139989652
OC2D4 OG2S1  1  0.274361169238  0.546744910407
OC2D4 SG2P2  1  0.307769871169  1.141151004963
OC2D4 SEGD1  1  0.318496291735  1.144000784335
OC2D4 BG201  1  0.351904993665  0.282536198318
OC2D4 CC301  1  0.293996576986  0.144938011577
OC2D4 CC3062  1  0.293996576986  0.144938011577
OC2D4 CC311  1  0.293996576986  0.144938011577
OC2D4 CC3161  1  0.293996576986  0.144938011577
OC2D4 CC3162  1  0.293996576986  0.144938011577
OC2D4 CC3163  1  0.293996576986  0.144938011577
OC2D4 CC321  1  0.293996576986  0.144938011577
OC2D4 CC3261  1  0.293996576986  0.144938011577
OC2D4 CC3263  1  0.293996576986  0.144938011577
OC2D4 CC331  1  0.293996576986  0.144938011577
OC2D4 CC2O1  1  0.302905564168  0.480705002262
OC2D4 CC2O2  1  0.302905564168  0.383469934154
OC2D4 CC2O3  1  0.302905564168  0.434814034732
OC2D4 CC2O4  1  0.285087589805  0.355024172698
OC2D4 CC2O5  1  0.276178602624  0.453727744975
OC2D4 OC2D1  1  0.249451641079  0.502080000000
OC2D4 OC2D2  1  0.276178602624  0.502080000000
OC2D4 OC2D3  1  0.249451641079  0.502080000000
OC2D4 OC2D4  1  0.249451641079  0.502080000000
OC2D4 OC3C61  1  0.271724109033  0.458334236120
OC2D4 OC311  1  0.281969444291  0.635251912639
OC2D4 NC2D1  1  0.262815121851  0.648182492821
OC2D4  HCP1  1  0.144726496762  0.310857403193
OC2D4  HCA1  1  0.244106248770  0.307459952514
OC2D4  HCA2  1  0.244106248770  0.271154190821
OC2D4  HCA3  1  0.244106248770  0.224537002029
OC2D4 CC312  1  0.293996576986  0.144938011577
OC2D4 CC322  1  0.293996576986  0.144938011577
OC2D4  HCR1  1  0.195997717991  0.310857403193
OC2D4 HCA3M  1  0.244106248770  0.224537002029
OC2D4 CC321C  1  0.293996576986  0.144938011577
OC2D4 CC321D  1  0.293996576986  0.144938011577
OC2D4 CC311C  1  0.293996576986  0.144938011577
OC2D4 CC311D  1  0.293996576986  0.144938011577
OC2D4 OC301  1  0.271724109033  0.458334236120
OC2D4 OC302  1  0.271724109033  0.458334236120
OC2D4 HCP1M  1  0.144726496762  0.310857403193
OC2D4 OC311M  1  0.281969444291  0.635251912639
OC2D4 OC3C5M  1  0.271724109033  0.458334236120
OC2D4 CC322C  1  0.293996576986  0.144938011577
OC2D4 HCA2C2  1  0.240542653898  0.271154190821
OC2D4 CC312C  1  0.293996576986  0.144938011577
OC2D4 HCA1C2  1  0.244106248770  0.307459952514
OC2D4 OC3C51  1  0.271724109033  0.458334236120
OC2D4 CC3152  1  0.293996576986  0.144938011577
OC2D4 CC3051  1  0.293996576986  0.144938011577
OC2D4 CC3251  1  0.293996576986  0.144938011577
OC2D4 CC3151  1  0.293996576986  0.144938011577
OC2D4 CC3153  1  0.293996576986  0.144938011577
OC2D4 OC2DP  1  0.276178602624  0.502080000000
OC2D4 OC312  1  0.282414893650  0.565258245152
OC2D4 OC30P  1  0.282414893650  0.565258245152
OC2D4    PC  1  0.316269044940  1.108562623941
OC2D4    SC  1  0.311814551349  0.993644945843
OC2D4 CC312D  1  0.293996576986  0.144938011577
OC2D4 OC303  1  0.271724109033  0.458334236120
OC2D4 NC311  1  0.302905564168  0.307459952514
OC2D4   HN1  1  0.144726496762  0.310857403193
OC2D4   HN2  1  0.144726496762  0.310857403193
OC2D4   HN3  1  0.222724679535  0.310857403193
OC2D4   HN4  1  0.144726496762  0.310857403193
OC2D4   HN5  1  0.144726496762  0.310857403193
OC2D4   HN6  1  0.242324451334  0.214977812437
OC2D4   HN7  1  0.242324451334  0.214977812437
OC2D4   HN8  1  0.244106248770  0.242527681224
OC2D4   HN9  1  0.244106248770  0.224537002029
OC2D4   NN1  1  0.289542083396  0.648182492821
OC2D4   NN2  1  0.289542083396  0.648182492821
OC2D4  NN2B  1  0.289542083396  0.648182492821
OC2D4  NN2G  1  0.289542083396  0.648182492821
OC2D4  NN2U  1  0.289542083396  0.648182492821
OC2D4   NN3  1  0.289542083396  0.648182492821
OC2D4  NN3A  1  0.289542083396  0.648182492821
OC2D4  NN3G  1  0.289542083396  0.648182492821
OC2D4   NN4  1  0.289542083396  0.648182492821
OC2D4   NN6  1  0.289542083396  0.648182492821
OC2D4   ON1  1  0.276178602624  0.502080000000
OC2D4  ON1C  1  0.276178602624  0.502080000000
OC2D4   ON2  1  0.282414893650  0.565258245152
OC2D4   ON3  1  0.276178602624  0.502080000000
OC2D4   ON4  1  0.282414893650  0.565258245152
OC2D4   ON5  1  0.282414893650  0.565258245152
OC2D4   ON6  1  0.282414893650  0.565258245152
OC2D4  ON6B  1  0.282414893650  0.565258245152
OC2D4   CN1  1  0.293996576986  0.458334236120
OC2D4  CN1T  1  0.293996576986  0.458334236120
OC2D4   CN2  1  0.293996576986  0.458334236120
OC2D4   CN3  1  0.293996576986  0.434814034732
OC2D4  CN3T  1  0.293996576986  0.434814034732
OC2D4   CN4  1  0.293996576986  0.396929091904
OC2D4   CN5  1  0.293996576986  0.396929091904
OC2D4  CN5G  1  0.293996576986  0.396929091904
OC2D4   CN7  1  0.293996576986  0.144938011577
OC2D4  CN7B  1  0.293996576986  0.144938011577
OC2D4   CN8  1  0.293996576986  0.144938011577
OC2D4  CN8B  1  0.293996576986  0.144938011577
OC2D4   CN9  1  0.293996576986  0.144938011577
OC2D4     P  1  0.316269044940  1.108562623941
OC2D4    P2  1  0.316269044940  1.108562623941
OC2D4    P3  1  0.316269044940  1.108562623941
OC2D4    P4  1  0.316269044940  1.108562623941
OC2D4   HOL  1  0.144726496762  0.310857403193
OC2D4  HAL1  1  0.242324451334  0.214977812437
OC2D4  HAL2  1  0.244106248770  0.242527681224
OC2D4  HAL3  1  0.244106248770  0.224537002029
OC2D4   HBL  1  0.242324451334  0.214977812437
OC2D4   HCL  1  0.144726496762  0.310857403193
OC2D4    HL  1  0.187088730809  0.310857403193
OC2D4  HEL1  1  0.236088160307  0.255189702614
OC2D4  HEL2  1  0.236979059025  0.233705521373
OC2D4    CL  1  0.302905564168  0.383469934154
OC2D4   CCL  1  0.302905564168  0.383469934154
OC2D4  CTL1  1  0.293996576986  0.144938011577
OC2D4  CTL2  1  0.293996576986  0.144938011577
OC2D4  CTL3  1  0.293996576986  0.144938011577
OC2D4  CTL5  1  0.293996576986  0.144938011577
OC2D4  CEL1  1  0.310923652631  0.377952093472
OC2D4  CEL2  1  0.310032753913  0.366667388896
OC2D4  CRL1  1  0.293996576986  0.144938011577
OC2D4  CRL2  1  0.293996576986  0.144938011577
OC2D4   OBL  1  0.249451641079  0.502080000000
OC2D4   OCL  1  0.276178602624  0.502080000000
OC2D4   O2L  1  0.276178602624  0.502080000000
OC2D4   OHL  1  0.282414893650  0.565258245152
OC2D4   OSL  1  0.271724109033  0.458334236120
OC2D4  OSLP  1  0.271724109033  0.458334236120
OC2D4  NH3L  1  0.289542083396  0.648182492821
OC2D4   NTL  1  0.289542083396  0.648182492821
OC2D4    SL  1  0.311814551349  0.993644945843
OC2D4    PL  1  0.316269044940  1.108562623941
OC2D4 HCA1A  1  0.244106248770  0.307459952514
OC2D4 HCA2A  1  0.244106248770  0.271154190821
OC2D4 HCA3A  1  0.244106248770  0.224537002029
OC2D4 CC30A  1  0.293996576986  0.144938011577
OC2D4 CC31A  1  0.293996576986  0.144938011577
OC2D4 CC32A  1  0.293996576986  0.144938011577
OC2D4 CC33A  1  0.293996576986  0.144938011577
OC2D4 CC326A  1  0.293996576986  0.144938011577
OC2D4 HCA25A  1  0.240542653898  0.271154190821
OC2D4 CC325A  1  0.293996576986  0.144938011577
OC2D4 CC325B  1  0.293996576986  0.144938011577
OC2D4 OC305A  1  0.271724109033  0.458334236120
OC2D4 OC30A  1  0.271724109033  0.458334236120
OC2D4  HSIO  1  0.144726496762  0.310857403193
OC2D4  HSIA  1  0.242324451334  0.214977812437
OC2D4   HAL  1  0.242324451334  0.214977812437
OC2D4    AL  1  0.320723538531  1.168527606863
OC2D4    SI  1  0.320723538531  1.122685010143
OC2D4  SIH3  1  0.320723538531  1.122685010143
OC2D4  OSIH  1  0.282414893650  0.565258245152
OC2D4  OSIE  1  0.282414893650  0.565258245152
OC2D4  OSIA  1  0.282414893650  0.565258245152
OC2D4   OAL  1  0.282414893650  0.565258245152
OC2D4    HT  1  0.144726496762  0.310857403193
OC2D4    OT  1  0.282254531881  0.565258245152
OC2D4   DUM  1  0.124725820540  0.000000000000
OC2D4    CM  1  0.311814551349  0.480705002262
OC2D4   CPA  1  0.285087589805  0.434814034732
OC2D4   CPB  1  0.285087589805  0.434814034732
OC2D4   CPM  1  0.285087589805  0.434814034732
OC2D4   CST  1  0.263973290185  0.349056954894
OC2D4  CT1X  1  0.293996576986  0.144938011577
OC2D4  CT2X  1  0.293996576986  0.144938011577
OC2D4  CT3X  1  0.293996576986  0.144938011577
OC2D4    HB  1  0.242324451334  0.214977812437
OC2D4   NPH  1  0.289542083396  0.648182492821
OC2D4    OM  1  0.276178602624  0.502080000000
OC2D4   OST  1  0.275465883649  0.588740986173
OC2D4   POT  1  0.281858081952  0.427505715330
OC2D4   CAL  1  0.246511675309  0.502080000000
OC2D4    MG  1  0.230297318639  0.177512086349
OC2D4   CES  1  0.311814551349  0.631770145543
OC2D4    ZN  1  0.221833780817  0.724690057887
OC2D4    FE  1  0.182634237219  0.000000000000
OC2D4    HE  1  0.256578830824  0.211381046583
OC2D4    NE  1  0.261033324415  0.425041684920
OC2D4  CLAL  1  0.294727113935  0.251040000000
OC2D4    AG  1  0.256356106145  3.095028982611
OC2D4    AU  1  0.256177926401  3.333574266279
OC2D4    CU  1  0.241255372872  3.148859609192
OC2D4    NI  1  0.238404496974  3.445137205976
OC2D4    PB  1  0.283528517048  2.480939130571
OC2D4    PD  1  0.250297994862  3.594345799725
OC2D4    PT  1  0.251456163195  4.047898370266
OC2D4   CAP  1  0.302228481142  0.383469934154
OC2D4    FA  1  0.276178602624  0.502080000000
OC2D4    CN  1  0.280633096214  0.648182492821
OC2D4    NC  1  0.289542083396  1.122685010143
OC2D4   OCA  1  0.249451641079  0.502080000000
OC2D4   COA  1  0.302905564168  0.480705002262
OC2D4   CF1  1  0.293996576986  0.355024172698
OC2D4   CF2  1  0.307360057758  0.297034533750
OC2D4   CF3  1  0.329632525712  0.204973301676
OC2D4   HF1  1  0.242324451334  0.242527681224
OC2D4   HF2  1  0.240542653898  0.251040000000
OC2D4    F1  1  0.269942311597  0.532536259047
OC2D4    F2  1  0.269942311597  0.469652835188
OC2D4    F3  1  0.267269615442  0.451406871724
OC2D4    OX  1  0.276178602624  0.502080000000
OC2D4    HX  1  0.144726496762  0.310857403193
OC2D4  HPER  1  0.144726496762  0.310857403193
OC2D4  OPER  1  0.273882756627  0.654375459843
OC2D4   LIT  1  0.240319929218  0.069961684782
OC2D4   RUB  1  0.293996576986  0.561342505072
OC2D4   BAR  1  0.293105678268  0.561342505072
OC2D4   CAD  1  0.245620776591  0.502080000000
OC2D4  ON2B  1  0.282414893650  0.565258245152
OC2D4    SP  1  0.320723538531  0.972273739232
OC2D4   HNP  1  0.245727684437  0.251040000000
OC2D4  HNE1  1  0.236088160307  0.255189702614
OC2D4  HNE2  1  0.236979059025  0.233705521373
OC2D4  CN3D  1  0.293996576986  0.434814034732
OC2D4  CNE1  1  0.310923652631  0.377952093472
OC2D4  CNE2  1  0.310032753913  0.366667388896
OC2D4   CNA  1  0.302228481142  0.383469934154
OC2D4  CNA2  1  0.293996576986  0.383469934154
OC2D4   CNG  1  0.302905564168  0.480705002262
OC2D4  NN1C  1  0.289542083396  0.648182492821
OC2D4  NN2C  1  0.289542083396  0.648182492821
OC2D4  NN3I  1  0.289542083396  0.648182492821
OC2D4   NNG  1  0.289542083396  0.648182492821
OC2D4   FNA  1  0.276178602624  0.502080000000
OC2D4  ON2M  1  0.271724109033  0.458334236120
OC2D4   CN6  1  0.293996576986  0.144938011577
OC2D4  CN7E  1  0.293996576986  0.144938011577
OC2D4  CT2P  1  0.293996576986  0.144938011577
OC2D4  CTD1  1  0.293996576986  0.144938011577
OC2D4  CPD1  1  0.293996576986  0.144938011577
OC2D4  CC1A  1  0.310923652631  0.377952093472
OC2D4  CC1B  1  0.310923652631  0.377952093472
OC2D4   CC2  1  0.310032753913  0.366667388896
OC2D4   NS1  1  0.289542083396  0.648182492821
OC2D4   NS2  1  0.289542083396  0.648182492821
OC2D4   NHL  1  0.262815121851  0.648182492821
OC2D4  CTO1  1  0.293996576986  0.144938011577
OC2D4  CEL3  1  0.310923652631  0.377952093472
OC2D4  CTO2  1  0.293996576986  0.144938011577
OC2D4  HN3B  1  0.204906705172  0.310857403193
OC2D4  CN1A  1  0.302905564168  0.383469934154
OC2D4  CN3A  1  0.285087589805  0.614919905028
OC2D4  CN3B  1  0.285087589805  0.614919905028
OC2D4  CN3C  1  0.285087589805  0.614919905028
NC2D1     C  1  0.316269044940  0.620587489400
NC2D1    CA  1  0.315591961914  0.495057556250
NC2D1    CC  1  0.316269044940  0.495057556250
NC2D1    CD  1  0.316269044940  0.495057556250
NC2D1   CE1  1  0.324287133403  0.487934054561
NC2D1   CE2  1  0.323396234685  0.473365563598
NC2D1   CP1  1  0.307360057758  0.187114168357
NC2D1   CP2  1  0.307360057758  0.187114168357
NC2D1   CP3  1  0.307360057758  0.187114168357
NC2D1  CPH1  1  0.298451070577  0.418400000000
NC2D1  CPH2  1  0.298451070577  0.418400000000
NC2D1    CS  1  0.334087019303  0.620587489400
NC2D1   CPT  1  0.303796462886  0.588740986173
NC2D1    CY  1  0.315378146222  0.505554643535
NC2D1   CAI  1  0.315378146222  0.505554643535
NC2D1    CT  1  0.307360057758  0.187114168357
NC2D1   CT1  1  0.307360057758  0.187114168357
NC2D1   CT2  1  0.307360057758  0.187114168357
NC2D1  CT2A  1  0.307360057758  0.187114168357
NC2D1   CT3  1  0.307360057758  0.187114168357
NC2D1    C3  1  0.340768759689  0.264619394603
NC2D1     H  1  0.158089977534  0.401315181871
NC2D1    HA  1  0.255687932106  0.277535162457
NC2D1   HB1  1  0.255687932106  0.277535162457
NC2D1   HB2  1  0.257469729543  0.313101890125
NC2D1   HE1  1  0.249451641079  0.329448489449
NC2D1   HE2  1  0.250342539797  0.301712530731
NC2D1    HC  1  0.158089977534  0.401315181871
NC2D1    HP  1  0.259091165210  0.324091246411
NC2D1   HR1  1  0.218270185944  0.401315181871
NC2D1   HR2  1  0.200452211582  0.401315181871
NC2D1   HR3  1  0.268873233135  0.165254758963
NC2D1    HS  1  0.178179743628  0.591706954497
NC2D1   HA1  1  0.257469729543  0.396929091904
NC2D1   HA2  1  0.257469729543  0.345021478752
NC2D1   HA3  1  0.257469729543  0.289876023155
NC2D1     N  1  0.302905564168  0.018711416836
NC2D1   NC2  1  0.302905564168  0.836800000000
NC2D1   NH1  1  0.276178602624  0.836800000000
NC2D1   NH2  1  0.302905564168  0.836800000000
NC2D1   NH3  1  0.302905564168  0.836800000000
NC2D1    NP  1  0.302905564168  0.836800000000
NC2D1   NR1  1  0.302905564168  0.836800000000
NC2D1   NR2  1  0.302905564168  0.836800000000
NC2D1   NR3  1  0.302905564168  0.836800000000
NC2D1    NY  1  0.302905564168  0.836800000000
NC2D1     O  1  0.262815121851  0.648182492821
NC2D1    OB  1  0.262815121851  0.648182492821
NC2D1    OC  1  0.289542083396  0.648182492821
NC2D1   OH1  1  0.295778374423  0.729745256593
NC2D1    OS  1  0.295778374423  0.729745256593
NC2D1     S  1  0.316269044940  1.255200000000
NC2D1    SM  1  0.314041798144  1.153449199575
NC2D1    SS  1  0.334087019303  1.282790109098
NC2D1  HGA1  1  0.257469729543  0.396929091904
NC2D1  HGA2  1  0.257469729543  0.350058555102
NC2D1  HGA3  1  0.257469729543  0.289876023155
NC2D1  HGA4  1  0.249451641079  0.329448489449
NC2D1  HGA5  1  0.250342539797  0.301712530731
NC2D1  HGA6  1  0.255687932106  0.313101890125
NC2D1  HGA7  1  0.253906134670  0.324091246411
NC2D1 HGAAM0  1  0.252124337234  0.313101890125
NC2D1 HGAAM1  1  0.252124337234  0.313101890125
NC2D1 HGAAM2  1  0.250342539797  0.374228336714
NC2D1  HGP1  1  0.158089977534  0.401315181871
NC2D1  HGP2  1  0.158089977534  0.401315181871
NC2D1  HGP3  1  0.178179743628  0.591706954497
NC2D1  HGP4  1  0.158089977534  0.401315181871
NC2D1  HGP5  1  0.200452211582  0.401315181871
NC2D1 HGPAM1  1  0.216042939149  0.177512086349
NC2D1 HGPAM2  1  0.216042939149  0.187114168357
NC2D1 HGPAM3  1  0.215597489790  0.204973301676
NC2D1 HGR51  1  0.259091165210  0.324091246411
NC2D1 HGR52  1  0.218270185944  0.401315181871
NC2D1 HGR53  1  0.200452211582  0.401315181871
NC2D1 HGR61  1  0.259091165210  0.324091246411
NC2D1 HGR62  1  0.236088160307  0.401315181871
NC2D1 HGR63  1  0.218270185944  0.401315181871
NC2D1 HGR71  1  0.259091165210  0.324091246411
NC2D1 HGTIP3  1  0.158089977534  0.401315181871
NC2D1 CG1T1  1  0.302014665450  0.764653902364
NC2D1 CG1T2  1  0.315600870901  0.601099715388
NC2D1 CG1N1  1  0.304687361604  0.793858183809
NC2D1 CG2D1  1  0.324287133403  0.487934054561
NC2D1 CG2D2  1  0.323396234685  0.473365563598
NC2D1 CG2D1O  1  0.324287133403  0.487934054561
NC2D1 CG2D2O  1  0.324287133403  0.487934054561
NC2D1 CG2DC1  1  0.324287133403  0.487934054561
NC2D1 CG2DC2  1  0.324287133403  0.487934054561
NC2D1 CG2DC3  1  0.323396234685  0.473365563598
NC2D1 CG2N1  1  0.316269044940  0.620587489400
NC2D1 CG2N2  1  0.316269044940  0.620587489400
NC2D1 CG2O1  1  0.316269044940  0.620587489400
NC2D1 CG2O2  1  0.289542083396  0.585760000000
NC2D1 CG2O3  1  0.316269044940  0.495057556250
NC2D1 CG2O4  1  0.298451070577  0.458334236120
NC2D1 CG2O5  1  0.316269044940  0.561342505072
NC2D1 CG2O6  1  0.316269044940  0.495057556250
NC2D1 CG2O7  1  0.277336770957  0.450630591061
NC2D1 CG2R51  1  0.325178032121  0.418400000000
NC2D1 CG2R52  1  0.334087019303  0.264619394603
NC2D1 CG2R53  1  0.334087019303  0.264619394603
NC2D1 CG2R57  1  0.325178032121  0.418400000000
NC2D1 CG25C1  1  0.324287133403  0.487934054561
NC2D1 CG25C2  1  0.324287133403  0.487934054561
NC2D1 CG251O  1  0.324287133403  0.487934054561
NC2D1 CG252O  1  0.324287133403  0.487934054561
NC2D1 CG2R61  1  0.315591961914  0.495057556250
NC2D1 CG2R62  1  0.307360057758  0.561342505072
NC2D1 CG2R63  1  0.307360057758  0.591706954497
NC2D1 CG2R64  1  0.325178032121  0.374228336714
NC2D1 CG2R66  1  0.307360057758  0.495057556250
NC2D1 CG2R67  1  0.315591961914  0.495057556250
NC2D1 CG2RC0  1  0.303796462886  0.588740986173
NC2D1 CG2R71  1  0.315805777606  0.484333016013
NC2D1 CG2RC7  1  0.303796462886  0.588740986173
NC2D1 CG301  1  0.307360057758  0.187114168357
NC2D1 CG302  1  0.342996006484  0.264619394603
NC2D1 CG311  1  0.307360057758  0.187114168357
NC2D1 CG312  1  0.320723538531  0.383469934154
NC2D1 CG314  1  0.307360057758  0.187114168357
NC2D1 CG321  1  0.307360057758  0.187114168357
NC2D1 CG322  1  0.307360057758  0.458334236120
NC2D1 CG323  1  0.334087019303  0.620587489400
NC2D1 CG324  1  0.307360057758  0.187114168357
NC2D1 CG331  1  0.307360057758  0.187114168357
NC2D1 CG334  1  0.307360057758  0.187114168357
NC2D1 CG3C50  1  0.307360057758  0.187114168357
NC2D1 CG3C51  1  0.307360057758  0.187114168357
NC2D1 CG3C52  1  0.307360057758  0.187114168357
NC2D1 CG3C53  1  0.307360057758  0.187114168357
NC2D1 CG3C54  1  0.307360057758  0.187114168357
NC2D1 CG3C31  1  0.307360057758  0.187114168357
NC2D1 CG3C41  1  0.307360057758  0.187114168357
NC2D1 CG3RC1  1  0.307360057758  0.187114168357
NC2D1 CG3AM0  1  0.313596348785  0.495057556250
NC2D1 CG3AM1  1  0.314487247504  0.522581432506
NC2D1 CG3AM2  1  0.315378146222  0.529238789206
NC2D1 NG1T1  1  0.297560171859  0.793858183809
NC2D1 NG2D1  1  0.302905564168  0.836800000000
NC2D1 NG2S0  1  0.302905564168  0.018711416836
NC2D1 NG2S1  1  0.276178602624  0.836800000000
NC2D1 NG2S2  1  0.302905564168  0.836800000000
NC2D1 NG2S3  1  0.302905564168  0.836800000000
NC2D1 NG2O1  1  0.302905564168  0.836800000000
NC2D1 NG2P1  1  0.302905564168  0.836800000000
NC2D1 NG2R43  1  0.302905564168  0.836800000000
NC2D1 NG2R50  1  0.302905564168  0.836800000000
NC2D1 NG2R51  1  0.302905564168  0.836800000000
NC2D1 NG2R52  1  0.302905564168  0.836800000000
NC2D1 NG2R53  1  0.302905564168  0.836800000000
NC2D1 NG2R57  1  0.302905564168  0.836800000000
NC2D1 NG2R60  1  0.306469159040  0.458334236120
NC2D1 NG2R61  1  0.302905564168  0.836800000000
NC2D1 NG2R62  1  0.321614437249  0.418400000000
NC2D1 NG2R67  1  0.302905564168  0.836800000000
NC2D1 NG2RC0  1  0.302905564168  0.836800000000
NC2D1 NG301  1  0.316269044940  0.350058555102
NC2D1 NG311  1  0.316269044940  0.396929091904
NC2D1 NG321  1  0.315378146222  0.458334236120
NC2D1 NG331  1  0.314487247504  0.495057556250
NC2D1 NG3C51  1  0.302905564168  0.836800000000
NC2D1 NG3N1  1  0.320723538531  0.458334236120
NC2D1 NG3P0  1  0.302905564168  0.836800000000
NC2D1 NG3P1  1  0.302905564168  0.836800000000
NC2D1 NG3P2  1  0.302905564168  0.836800000000
NC2D1 NG3P3  1  0.302905564168  0.836800000000
NC2D1 OG2D1  1  0.262815121851  0.648182492821
NC2D1 OG2D2  1  0.289542083396  0.648182492821
NC2D1 OG2D3  1  0.262815121851  0.648182492821
NC2D1 OG2D4  1  0.289542083396  0.648182492821
NC2D1 OG2D5  1  0.288829364421  0.760061344893
NC2D1 OG2N1  1  0.289542083396  0.648182492821
NC2D1 OG2P1  1  0.289542083396  0.648182492821
NC2D1 OG2R50  1  0.289542083396  0.648182492821
NC2D1 OG3R60  1  0.285087589805  0.591706954497
NC2D1 OG301  1  0.285087589805  0.591706954497
NC2D1 OG302  1  0.285087589805  0.591706954497
NC2D1 OG303  1  0.285087589805  0.591706954497
NC2D1 OG304  1  0.285087589805  0.591706954497
NC2D1 OG311  1  0.295332925064  0.820106692766
NC2D1 OG312  1  0.293996576986  0.648182492821
NC2D1 OG3C31  1  0.285087589805  0.591706954497
NC2D1 OG3C51  1  0.285087589805  0.591706954497
NC2D1 OG3C61  1  0.285087589805  0.591706954497
NC2D1 OGTIP3  1  0.295618012653  0.729745256593
NC2D1 SG2D1  1  0.320723538531  1.406471374753
NC2D1 SG2R50  1  0.316269044940  1.255200000000
NC2D1 SG311  1  0.316269044940  1.255200000000
NC2D1 SG301  1  0.314041798144  1.153449199575
NC2D1 SG302  1  0.334087019303  1.282790109098
NC2D1 SG3O1  1  0.325178032121  1.282790109098
NC2D1 SG3O2  1  0.316269044940  1.106982348549
NC2D1 SG3O3  1  0.316269044940  1.106982348549
NC2D1  FGA1  1  0.283305792369  0.687501354180
NC2D1  FGA2  1  0.283305792369  0.606319203061
NC2D1  FGA3  1  0.280633096214  0.582763765517
NC2D1  FGP1  1  0.280633096214  0.582763765517
NC2D1  FGR1  1  0.289542083396  0.648182492821
NC2D1 CLGA1  1  0.308250956477  1.095856615438
NC2D1 CLGA3  1  0.308250956477  1.041807598360
NC2D1 BRGA1  1  0.313596348785  1.296364985643
NC2D1 BRGA2  1  0.320723538531  1.362211707482
NC2D1 BRGA3  1  0.316269044940  1.375002708361
NC2D1   SOD  1  0.263772837973  0.405222074029
NC2D1   CLA  1  0.340323310330  0.724690057887
NC2D1   PG0  1  0.329632525712  1.431148193584
NC2D1   PG1  1  0.329632525712  1.431148193584
NC2D1   PG2  1  0.329632525712  1.431148193584
NC2D1  ALG1  1  0.316269044940  1.508562653654
NC2D1   LPH  1  0.138089301312  0.000000000000
NC2D1 CLGR1  1  0.303796462886  0.897368027066
NC2D1 BRGR1  1  0.314487247504  1.058477578412
NC2D1  IGR1  1  0.337650614175  1.349299456755
NC2D1 SG2P1  1  0.324616765929  1.486115336359
NC2D1 OG2S1  1  0.287724650011  0.705844644210
NC2D1 SG2P2  1  0.321133351941  1.473219612576
NC2D1 SEGD1  1  0.331859772507  1.476898661926
NC2D1 BG201  1  0.365268474438  0.364752663595
NC2D1 CC301  1  0.307360057758  0.187114168357
NC2D1 CC3062  1  0.307360057758  0.187114168357
NC2D1 CC311  1  0.307360057758  0.187114168357
NC2D1 CC3161  1  0.307360057758  0.187114168357
NC2D1 CC3162  1  0.307360057758  0.187114168357
NC2D1 CC3163  1  0.307360057758  0.187114168357
NC2D1 CC321  1  0.307360057758  0.187114168357
NC2D1 CC3261  1  0.307360057758  0.187114168357
NC2D1 CC3263  1  0.307360057758  0.187114168357
NC2D1 CC331  1  0.307360057758  0.187114168357
NC2D1 CC2O1  1  0.316269044940  0.620587489400
NC2D1 CC2O2  1  0.316269044940  0.495057556250
NC2D1 CC2O3  1  0.316269044940  0.561342505072
NC2D1 CC2O4  1  0.298451070577  0.458334236120
NC2D1 CC2O5  1  0.289542083396  0.585760000000
NC2D1 OC2D1  1  0.262815121851  0.648182492821
NC2D1 OC2D2  1  0.289542083396  0.648182492821
NC2D1 OC2D3  1  0.262815121851  0.648182492821
NC2D1 OC2D4  1  0.262815121851  0.648182492821
NC2D1 OC3C61  1  0.285087589805  0.591706954497
NC2D1 OC311  1  0.295332925064  0.820106692766
NC2D1 NC2D1  1  0.276178602624  0.836800000000
NC2D1  HCP1  1  0.158089977534  0.401315181871
NC2D1  HCA1  1  0.257469729543  0.396929091904
NC2D1  HCA2  1  0.257469729543  0.350058555102
NC2D1  HCA3  1  0.257469729543  0.289876023155
NC2D1 CC312  1  0.307360057758  0.187114168357
NC2D1 CC322  1  0.307360057758  0.187114168357
NC2D1  HCR1  1  0.209361198763  0.401315181871
NC2D1 HCA3M  1  0.257469729543  0.289876023155
NC2D1 CC321C  1  0.307360057758  0.187114168357
NC2D1 CC321D  1  0.307360057758  0.187114168357
NC2D1 CC311C  1  0.307360057758  0.187114168357
NC2D1 CC311D  1  0.307360057758  0.187114168357
NC2D1 OC301  1  0.285087589805  0.591706954497
NC2D1 OC302  1  0.285087589805  0.591706954497
NC2D1 HCP1M  1  0.158089977534  0.401315181871
NC2D1 OC311M  1  0.295332925064  0.820106692766
NC2D1 OC3C5M  1  0.285087589805  0.591706954497
NC2D1 CC322C  1  0.307360057758  0.187114168357
NC2D1 HCA2C2  1  0.253906134670  0.350058555102
NC2D1 CC312C  1  0.307360057758  0.187114168357
NC2D1 HCA1C2  1  0.257469729543  0.396929091904
NC2D1 OC3C51  1  0.285087589805  0.591706954497
NC2D1 CC3152  1  0.307360057758  0.187114168357
NC2D1 CC3051  1  0.307360057758  0.187114168357
NC2D1 CC3251  1  0.307360057758  0.187114168357
NC2D1 CC3151  1  0.307360057758  0.187114168357
NC2D1 CC3153  1  0.307360057758  0.187114168357
NC2D1 OC2DP  1  0.289542083396  0.648182492821
NC2D1 OC312  1  0.295778374423  0.729745256593
NC2D1 OC30P  1  0.295778374423  0.729745256593
NC2D1    PC  1  0.329632525712  1.431148193584
NC2D1    SC  1  0.325178032121  1.282790109098
NC2D1 CC312D  1  0.307360057758  0.187114168357
NC2D1 OC303  1  0.285087589805  0.591706954497
NC2D1 NC311  1  0.316269044940  0.396929091904
NC2D1   HN1  1  0.158089977534  0.401315181871
NC2D1   HN2  1  0.158089977534  0.401315181871
NC2D1   HN3  1  0.236088160307  0.401315181871
NC2D1   HN4  1  0.158089977534  0.401315181871
NC2D1   HN5  1  0.158089977534  0.401315181871
NC2D1   HN6  1  0.255687932106  0.277535162457
NC2D1   HN7  1  0.255687932106  0.277535162457
NC2D1   HN8  1  0.257469729543  0.313101890125
NC2D1   HN9  1  0.257469729543  0.289876023155
NC2D1   NN1  1  0.302905564168  0.836800000000
NC2D1   NN2  1  0.302905564168  0.836800000000
NC2D1  NN2B  1  0.302905564168  0.836800000000
NC2D1  NN2G  1  0.302905564168  0.836800000000
NC2D1  NN2U  1  0.302905564168  0.836800000000
NC2D1   NN3  1  0.302905564168  0.836800000000
NC2D1  NN3A  1  0.302905564168  0.836800000000
NC2D1  NN3G  1  0.302905564168  0.836800000000
NC2D1   NN4  1  0.302905564168  0.836800000000
NC2D1   NN6  1  0.302905564168  0.836800000000
NC2D1   ON1  1  0.289542083396  0.648182492821
NC2D1  ON1C  1  0.289542083396  0.648182492821
NC2D1   ON2  1  0.295778374423  0.729745256593
NC2D1   ON3  1  0.289542083396  0.648182492821
NC2D1   ON4  1  0.295778374423  0.729745256593
NC2D1   ON5  1  0.295778374423  0.729745256593
NC2D1   ON6  1  0.295778374423  0.729745256593
NC2D1  ON6B  1  0.295778374423  0.729745256593
NC2D1   CN1  1  0.307360057758  0.591706954497
NC2D1  CN1T  1  0.307360057758  0.591706954497
NC2D1   CN2  1  0.307360057758  0.591706954497
NC2D1   CN3  1  0.307360057758  0.561342505072
NC2D1  CN3T  1  0.307360057758  0.561342505072
NC2D1   CN4  1  0.307360057758  0.512433254190
NC2D1   CN5  1  0.307360057758  0.512433254190
NC2D1  CN5G  1  0.307360057758  0.512433254190
NC2D1   CN7  1  0.307360057758  0.187114168357
NC2D1  CN7B  1  0.307360057758  0.187114168357
NC2D1   CN8  1  0.307360057758  0.187114168357
NC2D1  CN8B  1  0.307360057758  0.187114168357
NC2D1   CN9  1  0.307360057758  0.187114168357
NC2D1     P  1  0.329632525712  1.431148193584
NC2D1    P2  1  0.329632525712  1.431148193584
NC2D1    P3  1  0.329632525712  1.431148193584
NC2D1    P4  1  0.329632525712  1.431148193584
NC2D1   HOL  1  0.158089977534  0.401315181871
NC2D1  HAL1  1  0.255687932106  0.277535162457
NC2D1  HAL2  1  0.257469729543  0.313101890125
NC2D1  HAL3  1  0.257469729543  0.289876023155
NC2D1   HBL  1  0.255687932106  0.277535162457
NC2D1   HCL  1  0.158089977534  0.401315181871
NC2D1    HL  1  0.200452211582  0.401315181871
NC2D1  HEL1  1  0.249451641079  0.329448489449
NC2D1  HEL2  1  0.250342539797  0.301712530731
NC2D1    CL  1  0.316269044940  0.495057556250
NC2D1   CCL  1  0.316269044940  0.495057556250
NC2D1  CTL1  1  0.307360057758  0.187114168357
NC2D1  CTL2  1  0.307360057758  0.187114168357
NC2D1  CTL3  1  0.307360057758  0.187114168357
NC2D1  CTL5  1  0.307360057758  0.187114168357
NC2D1  CEL1  1  0.324287133403  0.487934054561
NC2D1  CEL2  1  0.323396234685  0.473365563598
NC2D1  CRL1  1  0.307360057758  0.187114168357
NC2D1  CRL2  1  0.307360057758  0.187114168357
NC2D1   OBL  1  0.262815121851  0.648182492821
NC2D1   OCL  1  0.289542083396  0.648182492821
NC2D1   O2L  1  0.289542083396  0.648182492821
NC2D1   OHL  1  0.295778374423  0.729745256593
NC2D1   OSL  1  0.285087589805  0.591706954497
NC2D1  OSLP  1  0.285087589805  0.591706954497
NC2D1  NH3L  1  0.302905564168  0.836800000000
NC2D1   NTL  1  0.302905564168  0.836800000000
NC2D1    SL  1  0.325178032121  1.282790109098
NC2D1    PL  1  0.329632525712  1.431148193584
NC2D1 HCA1A  1  0.257469729543  0.396929091904
NC2D1 HCA2A  1  0.257469729543  0.350058555102
NC2D1 HCA3A  1  0.257469729543  0.289876023155
NC2D1 CC30A  1  0.307360057758  0.187114168357
NC2D1 CC31A  1  0.307360057758  0.187114168357
NC2D1 CC32A  1  0.307360057758  0.187114168357
NC2D1 CC33A  1  0.307360057758  0.187114168357
NC2D1 CC326A  1  0.307360057758  0.187114168357
NC2D1 HCA25A  1  0.253906134670  0.350058555102
NC2D1 CC325A  1  0.307360057758  0.187114168357
NC2D1 CC325B  1  0.307360057758  0.187114168357
NC2D1 OC305A  1  0.285087589805  0.591706954497
NC2D1 OC30A  1  0.285087589805  0.591706954497
NC2D1  HSIO  1  0.158089977534  0.401315181871
NC2D1  HSIA  1  0.255687932106  0.277535162457
NC2D1   HAL  1  0.255687932106  0.277535162457
NC2D1    AL  1  0.334087019303  1.508562653654
NC2D1    SI  1  0.334087019303  1.449380115774
NC2D1  SIH3  1  0.334087019303  1.449380115774
NC2D1  OSIH  1  0.295778374423  0.729745256593
NC2D1  OSIE  1  0.295778374423  0.729745256593
NC2D1  OSIA  1  0.295778374423  0.729745256593
NC2D1   OAL  1  0.295778374423  0.729745256593
NC2D1    HT  1  0.158089977534  0.401315181871
NC2D1    OT  1  0.295618012653  0.729745256593
NC2D1   DUM  1  0.138089301312  0.000000000000
NC2D1    CM  1  0.325178032121  0.620587489400
NC2D1   CPA  1  0.298451070577  0.561342505072
NC2D1   CPB  1  0.298451070577  0.561342505072
NC2D1   CPM  1  0.298451070577  0.561342505072
NC2D1   CST  1  0.277336770957  0.450630591061
NC2D1  CT1X  1  0.307360057758  0.187114168357
NC2D1  CT2X  1  0.307360057758  0.187114168357
NC2D1  CT3X  1  0.307360057758  0.187114168357
NC2D1    HB  1  0.255687932106  0.277535162457
NC2D1   NPH  1  0.302905564168  0.836800000000
NC2D1    OM  1  0.289542083396  0.648182492821
NC2D1   OST  1  0.288829364421  0.760061344893
NC2D1   POT  1  0.295221562724  0.551907505294
NC2D1   CAL  1  0.259875156082  0.648182492821
NC2D1    MG  1  0.243660799411  0.229167118060
NC2D1   CES  1  0.325178032121  0.815611750774
NC2D1    ZN  1  0.235197261589  0.935570841786
NC2D1    FE  1  0.195997717991  0.000000000000
NC2D1    HE  1  0.269942311597  0.272891757706
NC2D1    NE  1  0.274396805187  0.548726455714
NC2D1  CLAL  1  0.308090594707  0.324091246411
NC2D1    AG  1  0.269719586917  3.995665235227
NC2D1    AU  1  0.269541407173  4.303625872215
NC2D1    CU  1  0.254618853645  4.065160275315
NC2D1    NI  1  0.251767977746  4.447653008048
NC2D1    PB  1  0.296891997820  3.202878645219
NC2D1    PD  1  0.263661475634  4.640280474282
NC2D1    PT  1  0.264819643967  5.225814325060
NC2D1   CAP  1  0.315591961914  0.495057556250
NC2D1    FA  1  0.289542083396  0.648182492821
NC2D1    CN  1  0.293996576986  0.836800000000
NC2D1    NC  1  0.302905564168  1.449380115774
NC2D1   OCA  1  0.262815121851  0.648182492821
NC2D1   COA  1  0.316269044940  0.620587489400
NC2D1   CF1  1  0.307360057758  0.458334236120
NC2D1   CF2  1  0.320723538531  0.383469934154
NC2D1   CF3  1  0.342996006484  0.264619394603
NC2D1   HF1  1  0.255687932106  0.313101890125
NC2D1   HF2  1  0.253906134670  0.324091246411
NC2D1    F1  1  0.283305792369  0.687501354180
NC2D1    F2  1  0.283305792369  0.606319203061
NC2D1    F3  1  0.280633096214  0.582763765517
NC2D1    OX  1  0.289542083396  0.648182492821
NC2D1    HX  1  0.158089977534  0.401315181871
NC2D1  HPER  1  0.158089977534  0.401315181871
NC2D1  OPER  1  0.287246237399  0.844795086046
NC2D1   LIT  1  0.253683409990  0.090320146678
NC2D1   RUB  1  0.307360057758  0.724690057887
NC2D1   BAR  1  0.306469159040  0.724690057887
NC2D1   CAD  1  0.258984257363  0.648182492821
NC2D1  ON2B  1  0.295778374423  0.729745256593
NC2D1    SP  1  0.334087019303  1.255200000000
NC2D1   HNP  1  0.259091165210  0.324091246411
NC2D1  HNE1  1  0.249451641079  0.329448489449
NC2D1  HNE2  1  0.250342539797  0.301712530731
NC2D1  CN3D  1  0.307360057758  0.561342505072
NC2D1  CNE1  1  0.324287133403  0.487934054561
NC2D1  CNE2  1  0.323396234685  0.473365563598
NC2D1   CNA  1  0.315591961914  0.495057556250
NC2D1  CNA2  1  0.307360057758  0.495057556250
NC2D1   CNG  1  0.316269044940  0.620587489400
NC2D1  NN1C  1  0.302905564168  0.836800000000
NC2D1  NN2C  1  0.302905564168  0.836800000000
NC2D1  NN3I  1  0.302905564168  0.836800000000
NC2D1   NNG  1  0.302905564168  0.836800000000
NC2D1   FNA  1  0.289542083396  0.648182492821
NC2D1  ON2M  1  0.285087589805  0.591706954497
NC2D1   CN6  1  0.307360057758  0.187114168357
NC2D1  CN7E  1  0.307360057758  0.187114168357
NC2D1  CT2P  1  0.307360057758  0.187114168357
NC2D1  CTD1  1  0.307360057758  0.187114168357
NC2D1  CPD1  1  0.307360057758  0.187114168357
NC2D1  CC1A  1  0.324287133403  0.487934054561
NC2D1  CC1B  1  0.324287133403  0.487934054561
NC2D1   CC2  1  0.323396234685  0.473365563598
NC2D1   NS1  1  0.302905564168  0.836800000000
NC2D1   NS2  1  0.302905564168  0.836800000000
NC2D1   NHL  1  0.276178602624  0.836800000000
NC2D1  CTO1  1  0.307360057758  0.187114168357
NC2D1  CEL3  1  0.324287133403  0.487934054561
NC2D1  CTO2  1  0.307360057758  0.187114168357
NC2D1  HN3B  1  0.218270185944  0.401315181871
NC2D1  CN1A  1  0.316269044940  0.495057556250
NC2D1  CN3A  1  0.298451070577  0.793858183809
NC2D1  CN3B  1  0.298451070577  0.793858183809
NC2D1  CN3C  1  0.298451070577  0.793858183809
CC312     C  1  0.347450500075  0.138767581228
CC312    CA  1  0.346773417049  0.110698234855
CC312    CC  1  0.347450500075  0.110698234855
CC312    CD  1  0.347450500075  0.110698234855
CC312   CE1  1  0.355468588538  0.109105371453
CC312   CE2  1  0.354577689820  0.105847757841
CC312   CP1  1  0.338541512893  0.041840000000
CC312   CP2  1  0.338541512893  0.041840000000
CC312   CP3  1  0.338541512893  0.041840000000
CC312  CPH1  1  0.329632525712  0.093557084179
CC312  CPH2  1  0.329632525712  0.093557084179
CC312    CS  1  0.365268474438  0.138767581228
CC312   CPT  1  0.334977918021  0.131646486622
CC312    CY  1  0.346559601357  0.113045454929
CC312   CAI  1  0.346559601357  0.113045454929
CC312    CT  1  0.338541512893  0.041840000000
CC312   CT1  1  0.338541512893  0.041840000000
CC312   CT2  1  0.338541512893  0.041840000000
CC312  CT2A  1  0.338541512893  0.041840000000
CC312   CT3  1  0.338541512893  0.041840000000
CC312    C3  1  0.371950214824  0.059170695450
CC312     H  1  0.189271432669  0.089736802707
CC312    HA  1  0.286869387241  0.062058748940
CC312   HB1  1  0.286869387241  0.062058748940
CC312   HB2  1  0.288651184677  0.070011711020
CC312   HE1  1  0.280633096214  0.073666921749
CC312   HE2  1  0.281523994932  0.067464972838
CC312    HC  1  0.189271432669  0.089736802707
CC312    HP  1  0.290272620344  0.072469005789
CC312   HR1  1  0.249451641079  0.089736802707
CC312   HR2  1  0.231633666716  0.089736802707
CC312   HR3  1  0.300054688270  0.036952087465
CC312    HS  1  0.209361198763  0.132309697301
CC312   HA1  1  0.288651184677  0.088756043175
CC312   HA2  1  0.288651184677  0.077149148019
CC312   HA3  1  0.288651184677  0.064818249282
CC312     N  1  0.334087019303  0.004184000000
CC312   NC2  1  0.334087019303  0.187114168357
CC312   NH1  1  0.307360057758  0.187114168357
CC312   NH2  1  0.334087019303  0.187114168357
CC312   NH3  1  0.334087019303  0.187114168357
CC312    NP  1  0.334087019303  0.187114168357
CC312   NR1  1  0.334087019303  0.187114168357
CC312   NR2  1  0.334087019303  0.187114168357
CC312   NR3  1  0.334087019303  0.187114168357
CC312    NY  1  0.334087019303  0.187114168357
CC312     O  1  0.293996576986  0.144938011577
CC312    OB  1  0.293996576986  0.144938011577
CC312    OC  1  0.320723538531  0.144938011577
CC312   OH1  1  0.326959829558  0.163176000000
CC312    OS  1  0.326959829558  0.163176000000
CC312     S  1  0.347450500075  0.280671252536
CC312    SM  1  0.345223253279  0.257919081884
CC312    SS  1  0.365268474438  0.286840588481
CC312  HGA1  1  0.288651184677  0.088756043175
CC312  HGA2  1  0.288651184677  0.078275472531
CC312  HGA3  1  0.288651184677  0.064818249282
CC312  HGA4  1  0.280633096214  0.073666921749
CC312  HGA5  1  0.281523994932  0.067464972838
CC312  HGA6  1  0.286869387241  0.070011711020
CC312  HGA7  1  0.285087589805  0.072469005789
CC312 HGAAM0  1  0.283305792369  0.070011711020
CC312 HGAAM1  1  0.283305792369  0.070011711020
CC312 HGAAM2  1  0.281523994932  0.083680000000
CC312  HGP1  1  0.189271432669  0.089736802707
CC312  HGP2  1  0.189271432669  0.089736802707
CC312  HGP3  1  0.209361198763  0.132309697301
CC312  HGP4  1  0.189271432669  0.089736802707
CC312  HGP5  1  0.231633666716  0.089736802707
CC312 HGPAM1  1  0.247224394284  0.039692909190
CC312 HGPAM2  1  0.247224394284  0.041840000000
CC312 HGPAM3  1  0.246778944925  0.045833423612
CC312 HGR51  1  0.290272620344  0.072469005789
CC312 HGR52  1  0.249451641079  0.089736802707
CC312 HGR53  1  0.231633666716  0.089736802707
CC312 HGR61  1  0.290272620344  0.072469005789
CC312 HGR62  1  0.267269615442  0.089736802707
CC312 HGR63  1  0.249451641079  0.089736802707
CC312 HGR71  1  0.290272620344  0.072469005789
CC312 HGTIP3  1  0.189271432669  0.089736802707
CC312 CG1T1  1  0.333196120584  0.170981810495
CC312 CG1T2  1  0.346782326036  0.134409982486
CC312 CG1N1  1  0.335868816739  0.177512086349
CC312 CG2D1  1  0.355468588538  0.109105371453
CC312 CG2D2  1  0.354577689820  0.105847757841
CC312 CG2D1O  1  0.355468588538  0.109105371453
CC312 CG2D2O  1  0.355468588538  0.109105371453
CC312 CG2DC1  1  0.355468588538  0.109105371453
CC312 CG2DC2  1  0.355468588538  0.109105371453
CC312 CG2DC3  1  0.354577689820  0.105847757841
CC312 CG2N1  1  0.347450500075  0.138767581228
CC312 CG2N2  1  0.347450500075  0.138767581228
CC312 CG2O1  1  0.347450500075  0.138767581228
CC312 CG2O2  1  0.320723538531  0.130979917850
CC312 CG2O3  1  0.347450500075  0.110698234855
CC312 CG2O4  1  0.329632525712  0.102486650838
CC312 CG2O5  1  0.347450500075  0.125520000000
CC312 CG2O6  1  0.347450500075  0.110698234855
CC312 CG2O7  1  0.308518226092  0.100764063435
CC312 CG2R51  1  0.356359487256  0.093557084179
CC312 CG2R52  1  0.365268474438  0.059170695450
CC312 CG2R53  1  0.365268474438  0.059170695450
CC312 CG2R57  1  0.356359487256  0.093557084179
CC312 CG25C1  1  0.355468588538  0.109105371453
CC312 CG25C2  1  0.355468588538  0.109105371453
CC312 CG251O  1  0.355468588538  0.109105371453
CC312 CG252O  1  0.355468588538  0.109105371453
CC312 CG2R61  1  0.346773417049  0.110698234855
CC312 CG2R62  1  0.338541512893  0.125520000000
CC312 CG2R63  1  0.338541512893  0.132309697301
CC312 CG2R64  1  0.356359487256  0.083680000000
CC312 CG2R66  1  0.338541512893  0.110698234855
CC312 CG2R67  1  0.346773417049  0.110698234855
CC312 CG2RC0  1  0.334977918021  0.131646486622
CC312 CG2R71  1  0.346987232741  0.108300154755
CC312 CG2RC7  1  0.334977918021  0.131646486622
CC312 CG301  1  0.338541512893  0.041840000000
CC312 CG302  1  0.374177461619  0.059170695450
CC312 CG311  1  0.338541512893  0.041840000000
CC312 CG312  1  0.351904993665  0.085746484010
CC312 CG314  1  0.338541512893  0.041840000000
CC312 CG321  1  0.338541512893  0.041840000000
CC312 CG322  1  0.338541512893  0.102486650838
CC312 CG323  1  0.365268474438  0.138767581228
CC312 CG324  1  0.338541512893  0.041840000000
CC312 CG331  1  0.338541512893  0.041840000000
CC312 CG334  1  0.338541512893  0.041840000000
CC312 CG3C50  1  0.338541512893  0.041840000000
CC312 CG3C51  1  0.338541512893  0.041840000000
CC312 CG3C52  1  0.338541512893  0.041840000000
CC312 CG3C53  1  0.338541512893  0.041840000000
CC312 CG3C54  1  0.338541512893  0.041840000000
CC312 CG3C31  1  0.338541512893  0.041840000000
CC312 CG3C41  1  0.338541512893  0.041840000000
CC312 CG3RC1  1  0.338541512893  0.041840000000
CC312 CG3AM0  1  0.344777803920  0.110698234855
CC312 CG3AM1  1  0.345668702638  0.116852760686
CC312 CG3AM2  1  0.346559601357  0.118341390899
CC312 NG1T1  1  0.328741626994  0.177512086349
CC312 NG2D1  1  0.334087019303  0.187114168357
CC312 NG2S0  1  0.334087019303  0.004184000000
CC312 NG2S1  1  0.307360057758  0.187114168357
CC312 NG2S2  1  0.334087019303  0.187114168357
CC312 NG2S3  1  0.334087019303  0.187114168357
CC312 NG2O1  1  0.334087019303  0.187114168357
CC312 NG2P1  1  0.334087019303  0.187114168357
CC312 NG2R43  1  0.334087019303  0.187114168357
CC312 NG2R50  1  0.334087019303  0.187114168357
CC312 NG2R51  1  0.334087019303  0.187114168357
CC312 NG2R52  1  0.334087019303  0.187114168357
CC312 NG2R53  1  0.334087019303  0.187114168357
CC312 NG2R57  1  0.334087019303  0.187114168357
CC312 NG2R60  1  0.337650614175  0.102486650838
CC312 NG2R61  1  0.334087019303  0.187114168357
CC312 NG2R62  1  0.352795892384  0.093557084179
CC312 NG2R67  1  0.334087019303  0.187114168357
CC312 NG2RC0  1  0.334087019303  0.187114168357
CC312 NG301  1  0.347450500075  0.078275472531
CC312 NG311  1  0.347450500075  0.088756043175
CC312 NG321  1  0.346559601357  0.102486650838
CC312 NG331  1  0.345668702638  0.110698234855
CC312 NG3C51  1  0.334087019303  0.187114168357
CC312 NG3N1  1  0.351904993665  0.102486650838
CC312 NG3P0  1  0.334087019303  0.187114168357
CC312 NG3P1  1  0.334087019303  0.187114168357
CC312 NG3P2  1  0.334087019303  0.187114168357
CC312 NG3P3  1  0.334087019303  0.187114168357
CC312 OG2D1  1  0.293996576986  0.144938011577
CC312 OG2D2  1  0.320723538531  0.144938011577
CC312 OG2D3  1  0.293996576986  0.144938011577
CC312 OG2D4  1  0.320723538531  0.144938011577
CC312 OG2D5  1  0.320010819556  0.169954883425
CC312 OG2N1  1  0.320723538531  0.144938011577
CC312 OG2P1  1  0.320723538531  0.144938011577
CC312 OG2R50  1  0.320723538531  0.144938011577
CC312 OG3R60  1  0.316269044940  0.132309697301
CC312 OG301  1  0.316269044940  0.132309697301
CC312 OG302  1  0.316269044940  0.132309697301
CC312 OG303  1  0.316269044940  0.132309697301
CC312 OG304  1  0.316269044940  0.132309697301
CC312 OG311  1  0.326514380198  0.183381431383
CC312 OG312  1  0.325178032121  0.144938011577
CC312 OG3C31  1  0.316269044940  0.132309697301
CC312 OG3C51  1  0.316269044940  0.132309697301
CC312 OG3C61  1  0.316269044940  0.132309697301
CC312 OGTIP3  1  0.326799467788  0.163176000000
CC312 SG2D1  1  0.351904993665  0.314496560236
CC312 SG2R50  1  0.347450500075  0.280671252536
CC312 SG311  1  0.347450500075  0.280671252536
CC312 SG301  1  0.345223253279  0.257919081884
CC312 SG302  1  0.365268474438  0.286840588481
CC312 SG3O1  1  0.356359487256  0.286840588481
CC312 SG3O2  1  0.347450500075  0.247528778125
CC312 SG3O3  1  0.347450500075  0.247528778125
CC312  FGA1  1  0.314487247504  0.153729976257
CC312  FGA2  1  0.314487247504  0.135577095411
CC312  FGA3  1  0.311814551349  0.130309939452
CC312  FGP1  1  0.311814551349  0.130309939452
CC312  FGR1  1  0.320723538531  0.144938011577
CC312 CLGA1  1  0.339432411611  0.245040988571
CC312 CLGA3  1  0.339432411611  0.232955260941
CC312 BRGA1  1  0.344777803920  0.289876023155
CC312 BRGA2  1  0.351904993665  0.304599797767
CC312 BRGA3  1  0.347450500075  0.307459952514
CC312   SOD  1  0.294954293108  0.090610410351
CC312   CLA  1  0.371504765465  0.162045623205
CC312   PG0  1  0.360813980847  0.320014464673
CC312   PG1  1  0.360813980847  0.320014464673
CC312   PG2  1  0.360813980847  0.320014464673
CC312  ALG1  1  0.347450500075  0.337324864189
CC312   LPH  1  0.169270756447  0.000000000000
CC312 CLGR1  1  0.334977918021  0.200657590935
CC312 BRGR1  1  0.345668702638  0.236682781799
CC312  IGR1  1  0.368832069310  0.301712530731
CC312 SG2P1  1  0.355798221064  0.332305491450
CC312 OG2S1  1  0.318906105146  0.157831660601
CC312 SG2P2  1  0.352314807076  0.329421919951
CC312 SEGD1  1  0.363041227642  0.330244580395
CC312 BG201  1  0.396449929572  0.081561175077
CC312 CC301  1  0.338541512893  0.041840000000
CC312 CC3062  1  0.338541512893  0.041840000000
CC312 CC311  1  0.338541512893  0.041840000000
CC312 CC3161  1  0.338541512893  0.041840000000
CC312 CC3162  1  0.338541512893  0.041840000000
CC312 CC3163  1  0.338541512893  0.041840000000
CC312 CC321  1  0.338541512893  0.041840000000
CC312 CC3261  1  0.338541512893  0.041840000000
CC312 CC3263  1  0.338541512893  0.041840000000
CC312 CC331  1  0.338541512893  0.041840000000
CC312 CC2O1  1  0.347450500075  0.138767581228
CC312 CC2O2  1  0.347450500075  0.110698234855
CC312 CC2O3  1  0.347450500075  0.125520000000
CC312 CC2O4  1  0.329632525712  0.102486650838
CC312 CC2O5  1  0.320723538531  0.130979917850
CC312 OC2D1  1  0.293996576986  0.144938011577
CC312 OC2D2  1  0.320723538531  0.144938011577
CC312 OC2D3  1  0.293996576986  0.144938011577
CC312 OC2D4  1  0.293996576986  0.144938011577
CC312 OC3C61  1  0.316269044940  0.132309697301
CC312 OC311  1  0.326514380198  0.183381431383
CC312 NC2D1  1  0.307360057758  0.187114168357
CC312  HCP1  1  0.189271432669  0.089736802707
CC312  HCA1  1  0.288651184677  0.088756043175
CC312  HCA2  1  0.288651184677  0.078275472531
CC312  HCA3  1  0.288651184677  0.064818249282
CC312 CC312  1  0.338541512893  0.041840000000
CC312 CC322  1  0.338541512893  0.041840000000
CC312  HCR1  1  0.240542653898  0.089736802707
CC312 HCA3M  1  0.288651184677  0.064818249282
CC312 CC321C  1  0.338541512893  0.041840000000
CC312 CC321D  1  0.338541512893  0.041840000000
CC312 CC311C  1  0.338541512893  0.041840000000
CC312 CC311D  1  0.338541512893  0.041840000000
CC312 OC301  1  0.316269044940  0.132309697301
CC312 OC302  1  0.316269044940  0.132309697301
CC312 HCP1M  1  0.189271432669  0.089736802707
CC312 OC311M  1  0.326514380198  0.183381431383
CC312 OC3C5M  1  0.316269044940  0.132309697301
CC312 CC322C  1  0.338541512893  0.041840000000
CC312 HCA2C2  1  0.285087589805  0.078275472531
CC312 CC312C  1  0.338541512893  0.041840000000
CC312 HCA1C2  1  0.288651184677  0.088756043175
CC312 OC3C51  1  0.316269044940  0.132309697301
CC312 CC3152  1  0.338541512893  0.041840000000
CC312 CC3051  1  0.338541512893  0.041840000000
CC312 CC3251  1  0.338541512893  0.041840000000
CC312 CC3151  1  0.338541512893  0.041840000000
CC312 CC3153  1  0.338541512893  0.041840000000
CC312 OC2DP  1  0.320723538531  0.144938011577
CC312 OC312  1  0.326959829558  0.163176000000
CC312 OC30P  1  0.326959829558  0.163176000000
CC312    PC  1  0.360813980847  0.320014464673
CC312    SC  1  0.356359487256  0.286840588481
CC312 CC312D  1  0.338541512893  0.041840000000
CC312 OC303  1  0.316269044940  0.132309697301
CC312 NC311  1  0.347450500075  0.088756043175
CC312   HN1  1  0.189271432669  0.089736802707
CC312   HN2  1  0.189271432669  0.089736802707
CC312   HN3  1  0.267269615442  0.089736802707
CC312   HN4  1  0.189271432669  0.089736802707
CC312   HN5  1  0.189271432669  0.089736802707
CC312   HN6  1  0.286869387241  0.062058748940
CC312   HN7  1  0.286869387241  0.062058748940
CC312   HN8  1  0.288651184677  0.070011711020
CC312   HN9  1  0.288651184677  0.064818249282
CC312   NN1  1  0.334087019303  0.187114168357
CC312   NN2  1  0.334087019303  0.187114168357
CC312  NN2B  1  0.334087019303  0.187114168357
CC312  NN2G  1  0.334087019303  0.187114168357
CC312  NN2U  1  0.334087019303  0.187114168357
CC312   NN3  1  0.334087019303  0.187114168357
CC312  NN3A  1  0.334087019303  0.187114168357
CC312  NN3G  1  0.334087019303  0.187114168357
CC312   NN4  1  0.334087019303  0.187114168357
CC312   NN6  1  0.334087019303  0.187114168357
CC312   ON1  1  0.320723538531  0.144938011577
CC312  ON1C  1  0.320723538531  0.144938011577
CC312   ON2  1  0.326959829558  0.163176000000
CC312   ON3  1  0.320723538531  0.144938011577
CC312   ON4  1  0.326959829558  0.163176000000
CC312   ON5  1  0.326959829558  0.163176000000
CC312   ON6  1  0.326959829558  0.163176000000
CC312  ON6B  1  0.326959829558  0.163176000000
CC312   CN1  1  0.338541512893  0.132309697301
CC312  CN1T  1  0.338541512893  0.132309697301
CC312   CN2  1  0.338541512893  0.132309697301
CC312   CN3  1  0.338541512893  0.125520000000
CC312  CN3T  1  0.338541512893  0.125520000000
CC312   CN4  1  0.338541512893  0.114583559030
CC312   CN5  1  0.338541512893  0.114583559030
CC312  CN5G  1  0.338541512893  0.114583559030
CC312   CN7  1  0.338541512893  0.041840000000
CC312  CN7B  1  0.338541512893  0.041840000000
CC312   CN8  1  0.338541512893  0.041840000000
CC312  CN8B  1  0.338541512893  0.041840000000
CC312   CN9  1  0.338541512893  0.041840000000
CC312     P  1  0.360813980847  0.320014464673
CC312    P2  1  0.360813980847  0.320014464673
CC312    P3  1  0.360813980847  0.320014464673
CC312    P4  1  0.360813980847  0.320014464673
CC312   HOL  1  0.189271432669  0.089736802707
CC312  HAL1  1  0.286869387241  0.062058748940
CC312  HAL2  1  0.288651184677  0.070011711020
CC312  HAL3  1  0.288651184677  0.064818249282
CC312   HBL  1  0.286869387241  0.062058748940
CC312   HCL  1  0.189271432669  0.089736802707
CC312    HL  1  0.231633666716  0.089736802707
CC312  HEL1  1  0.280633096214  0.073666921749
CC312  HEL2  1  0.281523994932  0.067464972838
CC312    CL  1  0.347450500075  0.110698234855
CC312   CCL  1  0.347450500075  0.110698234855
CC312  CTL1  1  0.338541512893  0.041840000000
CC312  CTL2  1  0.338541512893  0.041840000000
CC312  CTL3  1  0.338541512893  0.041840000000
CC312  CTL5  1  0.338541512893  0.041840000000
CC312  CEL1  1  0.355468588538  0.109105371453
CC312  CEL2  1  0.354577689820  0.105847757841
CC312  CRL1  1  0.338541512893  0.041840000000
CC312  CRL2  1  0.338541512893  0.041840000000
CC312   OBL  1  0.293996576986  0.144938011577
CC312   OCL  1  0.320723538531  0.144938011577
CC312   O2L  1  0.320723538531  0.144938011577
CC312   OHL  1  0.326959829558  0.163176000000
CC312   OSL  1  0.316269044940  0.132309697301
CC312  OSLP  1  0.316269044940  0.132309697301
CC312  NH3L  1  0.334087019303  0.187114168357
CC312   NTL  1  0.334087019303  0.187114168357
CC312    SL  1  0.356359487256  0.286840588481
CC312    PL  1  0.360813980847  0.320014464673
CC312 HCA1A  1  0.288651184677  0.088756043175
CC312 HCA2A  1  0.288651184677  0.078275472531
CC312 HCA3A  1  0.288651184677  0.064818249282
CC312 CC30A  1  0.338541512893  0.041840000000
CC312 CC31A  1  0.338541512893  0.041840000000
CC312 CC32A  1  0.338541512893  0.041840000000
CC312 CC33A  1  0.338541512893  0.041840000000
CC312 CC326A  1  0.338541512893  0.041840000000
CC312 HCA25A  1  0.285087589805  0.078275472531
CC312 CC325A  1  0.338541512893  0.041840000000
CC312 CC325B  1  0.338541512893  0.041840000000
CC312 OC305A  1  0.316269044940  0.132309697301
CC312 OC30A  1  0.316269044940  0.132309697301
CC312  HSIO  1  0.189271432669  0.089736802707
CC312  HSIA  1  0.286869387241  0.062058748940
CC312   HAL  1  0.286869387241  0.062058748940
CC312    AL  1  0.365268474438  0.337324864189
CC312    SI  1  0.365268474438  0.324091246411
CC312  SIH3  1  0.365268474438  0.324091246411
CC312  OSIH  1  0.326959829558  0.163176000000
CC312  OSIE  1  0.326959829558  0.163176000000
CC312  OSIA  1  0.326959829558  0.163176000000
CC312   OAL  1  0.326959829558  0.163176000000
CC312    HT  1  0.189271432669  0.089736802707
CC312    OT  1  0.326799467788  0.163176000000
CC312   DUM  1  0.169270756447  0.000000000000
CC312    CM  1  0.356359487256  0.138767581228
CC312   CPA  1  0.329632525712  0.125520000000
CC312   CPB  1  0.329632525712  0.125520000000
CC312   CPM  1  0.329632525712  0.125520000000
CC312   CST  1  0.308518226092  0.100764063435
CC312  CT1X  1  0.338541512893  0.041840000000
CC312  CT2X  1  0.338541512893  0.041840000000
CC312  CT3X  1  0.338541512893  0.041840000000
CC312    HB  1  0.286869387241  0.062058748940
CC312   NPH  1  0.334087019303  0.187114168357
CC312    OM  1  0.320723538531  0.144938011577
CC312   OST  1  0.320010819556  0.169954883425
CC312   POT  1  0.326403017859  0.123410269913
CC312   CAL  1  0.291056611216  0.144938011577
CC312    MG  1  0.274842254546  0.051243325419
CC312   CES  1  0.356359487256  0.182376331798
CC312    ZN  1  0.266378716724  0.209200000000
CC312    FE  1  0.227179173126  0.000000000000
CC312    HE  1  0.301123766731  0.061020452073
CC312    NE  1  0.305578260322  0.122698965603
CC312  CLAL  1  0.339272049842  0.072469005789
CC312    AG  1  0.300901042052  0.893457908130
CC312    AU  1  0.300722862308  0.962320000000
CC312    CU  1  0.285800308779  0.908997471504
CC312    NI  1  0.282949432881  0.994525446633
CC312    PB  1  0.328073452955  0.716185437439
CC312    PD  1  0.294842930769  1.037598257516
CC312    PT  1  0.296001099102  1.168527606863
CC312   CAP  1  0.346773417049  0.110698234855
CC312    FA  1  0.320723538531  0.144938011577
CC312    CN  1  0.325178032121  0.187114168357
CC312    NC  1  0.334087019303  0.324091246411
CC312   OCA  1  0.293996576986  0.144938011577
CC312   COA  1  0.347450500075  0.138767581228
CC312   CF1  1  0.338541512893  0.102486650838
CC312   CF2  1  0.351904993665  0.085746484010
CC312   CF3  1  0.374177461619  0.059170695450
CC312   HF1  1  0.286869387241  0.070011711020
CC312   HF2  1  0.285087589805  0.072469005789
CC312    F1  1  0.314487247504  0.153729976257
CC312    F2  1  0.314487247504  0.135577095411
CC312    F3  1  0.311814551349  0.130309939452
CC312    OX  1  0.320723538531  0.144938011577
CC312    HX  1  0.189271432669  0.089736802707
CC312  HPER  1  0.189271432669  0.089736802707
CC312  OPER  1  0.318427692534  0.188901923946
CC312   LIT  1  0.284864865125  0.020196198771
CC312   RUB  1  0.338541512893  0.162045623205
CC312   BAR  1  0.337650614175  0.162045623205
CC312   CAD  1  0.290165712498  0.144938011577
CC312  ON2B  1  0.326959829558  0.163176000000
CC312    SP  1  0.365268474438  0.280671252536
CC312   HNP  1  0.290272620344  0.072469005789
CC312  HNE1  1  0.280633096214  0.073666921749
CC312  HNE2  1  0.281523994932  0.067464972838
CC312  CN3D  1  0.338541512893  0.125520000000
CC312  CNE1  1  0.355468588538  0.109105371453
CC312  CNE2  1  0.354577689820  0.105847757841
CC312   CNA  1  0.346773417049  0.110698234855
CC312  CNA2  1  0.338541512893  0.110698234855
CC312   CNG  1  0.347450500075  0.138767581228
CC312  NN1C  1  0.334087019303  0.187114168357
CC312  NN2C  1  0.334087019303  0.187114168357
CC312  NN3I  1  0.334087019303  0.187114168357
CC312   NNG  1  0.334087019303  0.187114168357
CC312   FNA  1  0.320723538531  0.144938011577
CC312  ON2M  1  0.316269044940  0.132309697301
CC312   CN6  1  0.338541512893  0.041840000000
CC312  CN7E  1  0.338541512893  0.041840000000
CC312  CT2P  1  0.338541512893  0.041840000000
CC312  CTD1  1  0.338541512893  0.041840000000
CC312  CPD1  1  0.338541512893  0.041840000000
CC312  CC1A  1  0.355468588538  0.109105371453
CC312  CC1B  1  0.355468588538  0.109105371453
CC312   CC2  1  0.354577689820  0.105847757841
CC312   NS1  1  0.334087019303  0.187114168357
CC312   NS2  1  0.334087019303  0.187114168357
CC312   NHL  1  0.307360057758  0.187114168357
CC312  CTO1  1  0.338541512893  0.041840000000
CC312  CEL3  1  0.355468588538  0.109105371453
CC312  CTO2  1  0.338541512893  0.041840000000
CC312  HN3B  1  0.249451641079  0.089736802707
CC312  CN1A  1  0.347450500075  0.110698234855
CC312  CN3A  1  0.329632525712  0.177512086349
CC312  CN3B  1  0.329632525712  0.177512086349
CC312  CN3C  1  0.329632525712  0.177512086349
CC322     C  1  0.347450500075  0.138767581228
CC322    CA  1  0.346773417049  0.110698234855
CC322    CC  1  0.347450500075  0.110698234855
CC322    CD  1  0.347450500075  0.110698234855
CC322   CE1  1  0.355468588538  0.109105371453
CC322   CE2  1  0.354577689820  0.105847757841
CC322   CP1  1  0.338541512893  0.041840000000
CC322   CP2  1  0.338541512893  0.041840000000
CC322   CP3  1  0.338541512893  0.041840000000
CC322  CPH1  1  0.329632525712  0.093557084179
CC322  CPH2  1  0.329632525712  0.093557084179
CC322    CS  1  0.365268474438  0.138767581228
CC322   CPT  1  0.334977918021  0.131646486622
CC322    CY  1  0.346559601357  0.113045454929
CC322   CAI  1  0.346559601357  0.113045454929
CC322    CT  1  0.338541512893  0.041840000000
CC322   CT1  1  0.338541512893  0.041840000000
CC322   CT2  1  0.338541512893  0.041840000000
CC322  CT2A  1  0.338541512893  0.041840000000
CC322   CT3  1  0.338541512893  0.041840000000
CC322    C3  1  0.371950214824  0.059170695450
CC322     H  1  0.189271432669  0.089736802707
CC322    HA  1  0.286869387241  0.062058748940
CC322   HB1  1  0.286869387241  0.062058748940
CC322   HB2  1  0.288651184677  0.070011711020
CC322   HE1  1  0.280633096214  0.073666921749
CC322   HE2  1  0.281523994932  0.067464972838
CC322    HC  1  0.189271432669  0.089736802707
CC322    HP  1  0.290272620344  0.072469005789
CC322   HR1  1  0.249451641079  0.089736802707
CC322   HR2  1  0.231633666716  0.089736802707
CC322   HR3  1  0.300054688270  0.036952087465
CC322    HS  1  0.209361198763  0.132309697301
CC322   HA1  1  0.288651184677  0.088756043175
CC322   HA2  1  0.288651184677  0.077149148019
CC322   HA3  1  0.288651184677  0.064818249282
CC322     N  1  0.334087019303  0.004184000000
CC322   NC2  1  0.334087019303  0.187114168357
CC322   NH1  1  0.307360057758  0.187114168357
CC322   NH2  1  0.334087019303  0.187114168357
CC322   NH3  1  0.334087019303  0.187114168357
CC322    NP  1  0.334087019303  0.187114168357
CC322   NR1  1  0.334087019303  0.187114168357
CC322   NR2  1  0.334087019303  0.187114168357
CC322   NR3  1  0.334087019303  0.187114168357
CC322    NY  1  0.334087019303  0.187114168357
CC322     O  1  0.293996576986  0.144938011577
CC322    OB  1  0.293996576986  0.144938011577
CC322    OC  1  0.320723538531  0.144938011577
CC322   OH1  1  0.326959829558  0.163176000000
CC322    OS  1  0.326959829558  0.163176000000
CC322     S  1  0.347450500075  0.280671252536
CC322    SM  1  0.345223253279  0.257919081884
CC322    SS  1  0.365268474438  0.286840588481
CC322  HGA1  1  0.288651184677  0.088756043175
CC322  HGA2  1  0.288651184677  0.078275472531
CC322  HGA3  1  0.288651184677  0.064818249282
CC322  HGA4  1  0.280633096214  0.073666921749
CC322  HGA5  1  0.281523994932  0.067464972838
CC322  HGA6  1  0.286869387241  0.070011711020
CC322  HGA7  1  0.285087589805  0.072469005789
CC322 HGAAM0  1  0.283305792369  0.070011711020
CC322 HGAAM1  1  0.283305792369  0.070011711020
CC322 HGAAM2  1  0.281523994932  0.083680000000
CC322  HGP1  1  0.189271432669  0.089736802707
CC322  HGP2  1  0.189271432669  0.089736802707
CC322  HGP3  1  0.209361198763  0.132309697301
CC322  HGP4  1  0.189271432669  0.089736802707
CC322  HGP5  1  0.231633666716  0.089736802707
CC322 HGPAM1  1  0.247224394284  0.039692909190
CC322 HGPAM2  1  0.247224394284  0.041840000000
CC322 HGPAM3  1  0.246778944925  0.045833423612
CC322 HGR51  1  0.290272620344  0.072469005789
CC322 HGR52  1  0.249451641079  0.089736802707
CC322 HGR53  1  0.231633666716  0.089736802707
CC322 HGR61  1  0.290272620344  0.072469005789
CC322 HGR62  1  0.267269615442  0.089736802707
CC322 HGR63  1  0.249451641079  0.089736802707
CC322 HGR71  1  0.290272620344  0.072469005789
CC322 HGTIP3  1  0.189271432669  0.089736802707
CC322 CG1T1  1  0.333196120584  0.170981810495
CC322 CG1T2  1  0.346782326036  0.134409982486
CC322 CG1N1  1  0.335868816739  0.177512086349
CC322 CG2D1  1  0.355468588538  0.109105371453
CC322 CG2D2  1  0.354577689820  0.105847757841
CC322 CG2D1O  1  0.355468588538  0.109105371453
CC322 CG2D2O  1  0.355468588538  0.109105371453
CC322 CG2DC1  1  0.355468588538  0.109105371453
CC322 CG2DC2  1  0.355468588538  0.109105371453
CC322 CG2DC3  1  0.354577689820  0.105847757841
CC322 CG2N1  1  0.347450500075  0.138767581228
CC322 CG2N2  1  0.347450500075  0.138767581228
CC322 CG2O1  1  0.347450500075  0.138767581228
CC322 CG2O2  1  0.320723538531  0.130979917850
CC322 CG2O3  1  0.347450500075  0.110698234855
CC322 CG2O4  1  0.329632525712  0.102486650838
CC322 CG2O5  1  0.347450500075  0.125520000000
CC322 CG2O6  1  0.347450500075  0.110698234855
CC322 CG2O7  1  0.308518226092  0.100764063435
CC322 CG2R51  1  0.356359487256  0.093557084179
CC322 CG2R52  1  0.365268474438  0.059170695450
CC322 CG2R53  1  0.365268474438  0.059170695450
CC322 CG2R57  1  0.356359487256  0.093557084179
CC322 CG25C1  1  0.355468588538  0.109105371453
CC322 CG25C2  1  0.355468588538  0.109105371453
CC322 CG251O  1  0.355468588538  0.109105371453
CC322 CG252O  1  0.355468588538  0.109105371453
CC322 CG2R61  1  0.346773417049  0.110698234855
CC322 CG2R62  1  0.338541512893  0.125520000000
CC322 CG2R63  1  0.338541512893  0.132309697301
CC322 CG2R64  1  0.356359487256  0.083680000000
CC322 CG2R66  1  0.338541512893  0.110698234855
CC322 CG2R67  1  0.346773417049  0.110698234855
CC322 CG2RC0  1  0.334977918021  0.131646486622
CC322 CG2R71  1  0.346987232741  0.108300154755
CC322 CG2RC7  1  0.334977918021  0.131646486622
CC322 CG301  1  0.338541512893  0.041840000000
CC322 CG302  1  0.374177461619  0.059170695450
CC322 CG311  1  0.338541512893  0.041840000000
CC322 CG312  1  0.351904993665  0.085746484010
CC322 CG314  1  0.338541512893  0.041840000000
CC322 CG321  1  0.338541512893  0.041840000000
CC322 CG322  1  0.338541512893  0.102486650838
CC322 CG323  1  0.365268474438  0.138767581228
CC322 CG324  1  0.338541512893  0.041840000000
CC322 CG331  1  0.338541512893  0.041840000000
CC322 CG334  1  0.338541512893  0.041840000000
CC322 CG3C50  1  0.338541512893  0.041840000000
CC322 CG3C51  1  0.338541512893  0.041840000000
CC322 CG3C52  1  0.338541512893  0.041840000000
CC322 CG3C53  1  0.338541512893  0.041840000000
CC322 CG3C54  1  0.338541512893  0.041840000000
CC322 CG3C31  1  0.338541512893  0.041840000000
CC322 CG3C41  1  0.338541512893  0.041840000000
CC322 CG3RC1  1  0.338541512893  0.041840000000
CC322 CG3AM0  1  0.344777803920  0.110698234855
CC322 CG3AM1  1  0.345668702638  0.116852760686
CC322 CG3AM2  1  0.346559601357  0.118341390899
CC322 NG1T1  1  0.328741626994  0.177512086349
CC322 NG2D1  1  0.334087019303  0.187114168357
CC322 NG2S0  1  0.334087019303  0.004184000000
CC322 NG2S1  1  0.307360057758  0.187114168357
CC322 NG2S2  1  0.334087019303  0.187114168357
CC322 NG2S3  1  0.334087019303  0.187114168357
CC322 NG2O1  1  0.334087019303  0.187114168357
CC322 NG2P1  1  0.334087019303  0.187114168357
CC322 NG2R43  1  0.334087019303  0.187114168357
CC322 NG2R50  1  0.334087019303  0.187114168357
CC322 NG2R51  1  0.334087019303  0.187114168357
CC322 NG2R52  1  0.334087019303  0.187114168357
CC322 NG2R53  1  0.334087019303  0.187114168357
CC322 NG2R57  1  0.334087019303  0.187114168357
CC322 NG2R60  1  0.337650614175  0.102486650838
CC322 NG2R61  1  0.334087019303  0.187114168357
CC322 NG2R62  1  0.352795892384  0.093557084179
CC322 NG2R67  1  0.334087019303  0.187114168357
CC322 NG2RC0  1  0.334087019303  0.187114168357
CC322 NG301  1  0.347450500075  0.078275472531
CC322 NG311  1  0.347450500075  0.088756043175
CC322 NG321  1  0.346559601357  0.102486650838
CC322 NG331  1  0.345668702638  0.110698234855
CC322 NG3C51  1  0.334087019303  0.187114168357
CC322 NG3N1  1  0.351904993665  0.102486650838
CC322 NG3P0  1  0.334087019303  0.187114168357
CC322 NG3P1  1  0.334087019303  0.187114168357
CC322 NG3P2  1  0.334087019303  0.187114168357
CC322 NG3P3  1  0.334087019303  0.187114168357
CC322 OG2D1  1  0.293996576986  0.144938011577
CC322 OG2D2  1  0.320723538531  0.144938011577
CC322 OG2D3  1  0.293996576986  0.144938011577
CC322 OG2D4  1  0.320723538531  0.144938011577
CC322 OG2D5  1  0.320010819556  0.169954883425
CC322 OG2N1  1  0.320723538531  0.144938011577
CC322 OG2P1  1  0.320723538531  0.144938011577
CC322 OG2R50  1  0.320723538531  0.144938011577
CC322 OG3R60  1  0.316269044940  0.132309697301
CC322 OG301  1  0.316269044940  0.132309697301
CC322 OG302  1  0.316269044940  0.132309697301
CC322 OG303  1  0.316269044940  0.132309697301
CC322 OG304  1  0.316269044940  0.132309697301
CC322 OG311  1  0.326514380198  0.183381431383
CC322 OG312  1  0.325178032121  0.144938011577
CC322 OG3C31  1  0.316269044940  0.132309697301
CC322 OG3C51  1  0.316269044940  0.132309697301
CC322 OG3C61  1  0.316269044940  0.132309697301
CC322 OGTIP3  1  0.326799467788  0.163176000000
CC322 SG2D1  1  0.351904993665  0.314496560236
CC322 SG2R50  1  0.347450500075  0.280671252536
CC322 SG311  1  0.347450500075  0.280671252536
CC322 SG301  1  0.345223253279  0.257919081884
CC322 SG302  1  0.365268474438  0.286840588481
CC322 SG3O1  1  0.356359487256  0.286840588481
CC322 SG3O2  1  0.347450500075  0.247528778125
CC322 SG3O3  1  0.347450500075  0.247528778125
CC322  FGA1  1  0.314487247504  0.153729976257
CC322  FGA2  1  0.314487247504  0.135577095411
CC322  FGA3  1  0.311814551349  0.130309939452
CC322  FGP1  1  0.311814551349  0.130309939452
CC322  FGR1  1  0.320723538531  0.144938011577
CC322 CLGA1  1  0.339432411611  0.245040988571
CC322 CLGA3  1  0.339432411611  0.232955260941
CC322 BRGA1  1  0.344777803920  0.289876023155
CC322 BRGA2  1  0.351904993665  0.304599797767
CC322 BRGA3  1  0.347450500075  0.307459952514
CC322   SOD  1  0.294954293108  0.090610410351
CC322   CLA  1  0.371504765465  0.162045623205
CC322   PG0  1  0.360813980847  0.320014464673
CC322   PG1  1  0.360813980847  0.320014464673
CC322   PG2  1  0.360813980847  0.320014464673
CC322  ALG1  1  0.347450500075  0.337324864189
CC322   LPH  1  0.169270756447  0.000000000000
CC322 CLGR1  1  0.334977918021  0.200657590935
CC322 BRGR1  1  0.345668702638  0.236682781799
CC322  IGR1  1  0.368832069310  0.301712530731
CC322 SG2P1  1  0.355798221064  0.332305491450
CC322 OG2S1  1  0.318906105146  0.157831660601
CC322 SG2P2  1  0.352314807076  0.329421919951
CC322 SEGD1  1  0.363041227642  0.330244580395
CC322 BG201  1  0.396449929572  0.081561175077
CC322 CC301  1  0.338541512893  0.041840000000
CC322 CC3062  1  0.338541512893  0.041840000000
CC322 CC311  1  0.338541512893  0.041840000000
CC322 CC3161  1  0.338541512893  0.041840000000
CC322 CC3162  1  0.338541512893  0.041840000000
CC322 CC3163  1  0.338541512893  0.041840000000
CC322 CC321  1  0.338541512893  0.041840000000
CC322 CC3261  1  0.338541512893  0.041840000000
CC322 CC3263  1  0.338541512893  0.041840000000
CC322 CC331  1  0.338541512893  0.041840000000
CC322 CC2O1  1  0.347450500075  0.138767581228
CC322 CC2O2  1  0.347450500075  0.110698234855
CC322 CC2O3  1  0.347450500075  0.125520000000
CC322 CC2O4  1  0.329632525712  0.102486650838
CC322 CC2O5  1  0.320723538531  0.130979917850
CC322 OC2D1  1  0.293996576986  0.144938011577
CC322 OC2D2  1  0.320723538531  0.144938011577
CC322 OC2D3  1  0.293996576986  0.144938011577
CC322 OC2D4  1  0.293996576986  0.144938011577
CC322 OC3C61  1  0.316269044940  0.132309697301
CC322 OC311  1  0.326514380198  0.183381431383
CC322 NC2D1  1  0.307360057758  0.187114168357
CC322  HCP1  1  0.189271432669  0.089736802707
CC322  HCA1  1  0.288651184677  0.088756043175
CC322  HCA2  1  0.288651184677  0.078275472531
CC322  HCA3  1  0.288651184677  0.064818249282
CC322 CC312  1  0.338541512893  0.041840000000
CC322 CC322  1  0.338541512893  0.041840000000
CC322  HCR1  1  0.240542653898  0.089736802707
CC322 HCA3M  1  0.288651184677  0.064818249282
CC322 CC321C  1  0.338541512893  0.041840000000
CC322 CC321D  1  0.338541512893  0.041840000000
CC322 CC311C  1  0.338541512893  0.041840000000
CC322 CC311D  1  0.338541512893  0.041840000000
CC322 OC301  1  0.316269044940  0.132309697301
CC322 OC302  1  0.316269044940  0.132309697301
CC322 HCP1M  1  0.189271432669  0.089736802707
CC322 OC311M  1  0.326514380198  0.183381431383
CC322 OC3C5M  1  0.316269044940  0.132309697301
CC322 CC322C  1  0.338541512893  0.041840000000
CC322 HCA2C2  1  0.285087589805  0.078275472531
CC322 CC312C  1  0.338541512893  0.041840000000
CC322 HCA1C2  1  0.288651184677  0.088756043175
CC322 OC3C51  1  0.316269044940  0.132309697301
CC322 CC3152  1  0.338541512893  0.041840000000
CC322 CC3051  1  0.338541512893  0.041840000000
CC322 CC3251  1  0.338541512893  0.041840000000
CC322 CC3151  1  0.338541512893  0.041840000000
CC322 CC3153  1  0.338541512893  0.041840000000
CC322 OC2DP  1  0.320723538531  0.144938011577
CC322 OC312  1  0.326959829558  0.163176000000
CC322 OC30P  1  0.326959829558  0.163176000000
CC322    PC  1  0.360813980847  0.320014464673
CC322    SC  1  0.356359487256  0.286840588481
CC322 CC312D  1  0.338541512893  0.041840000000
CC322 OC303  1  0.316269044940  0.132309697301
CC322 NC311  1  0.347450500075  0.088756043175
CC322   HN1  1  0.189271432669  0.089736802707
CC322   HN2  1  0.189271432669  0.089736802707
CC322   HN3  1  0.267269615442  0.089736802707
CC322   HN4  1  0.189271432669  0.089736802707
CC322   HN5  1  0.189271432669  0.089736802707
CC322   HN6  1  0.286869387241  0.062058748940
CC322   HN7  1  0.286869387241  0.062058748940
CC322   HN8  1  0.288651184677  0.070011711020
CC322   HN9  1  0.288651184677  0.064818249282
CC322   NN1  1  0.334087019303  0.187114168357
CC322   NN2  1  0.334087019303  0.187114168357
CC322  NN2B  1  0.334087019303  0.187114168357
CC322  NN2G  1  0.334087019303  0.187114168357
CC322  NN2U  1  0.334087019303  0.187114168357
CC322   NN3  1  0.334087019303  0.187114168357
CC322  NN3A  1  0.334087019303  0.187114168357
CC322  NN3G  1  0.334087019303  0.187114168357
CC322   NN4  1  0.334087019303  0.187114168357
CC322   NN6  1  0.334087019303  0.187114168357
CC322   ON1  1  0.320723538531  0.144938011577
CC322  ON1C  1  0.320723538531  0.144938011577
CC322   ON2  1  0.326959829558  0.163176000000
CC322   ON3  1  0.320723538531  0.144938011577
CC322   ON4  1  0.326959829558  0.163176000000
CC322   ON5  1  0.326959829558  0.163176000000
CC322   ON6  1  0.326959829558  0.163176000000
CC322  ON6B  1  0.326959829558  0.163176000000
CC322   CN1  1  0.338541512893  0.132309697301
CC322  CN1T  1  0.338541512893  0.132309697301
CC322   CN2  1  0.338541512893  0.132309697301
CC322   CN3  1  0.338541512893  0.125520000000
CC322  CN3T  1  0.338541512893  0.125520000000
CC322   CN4  1  0.338541512893  0.114583559030
CC322   CN5  1  0.338541512893  0.114583559030
CC322  CN5G  1  0.338541512893  0.114583559030
CC322   CN7  1  0.338541512893  0.041840000000
CC322  CN7B  1  0.338541512893  0.041840000000
CC322   CN8  1  0.338541512893  0.041840000000
CC322  CN8B  1  0.338541512893  0.041840000000
CC322   CN9  1  0.338541512893  0.041840000000
CC322     P  1  0.360813980847  0.320014464673
CC322    P2  1  0.360813980847  0.320014464673
CC322    P3  1  0.360813980847  0.320014464673
CC322    P4  1  0.360813980847  0.320014464673
CC322   HOL  1  0.189271432669  0.089736802707
CC322  HAL1  1  0.286869387241  0.062058748940
CC322  HAL2  1  0.288651184677  0.070011711020
CC322  HAL3  1  0.288651184677  0.064818249282
CC322   HBL  1  0.286869387241  0.062058748940
CC322   HCL  1  0.189271432669  0.089736802707
CC322    HL  1  0.231633666716  0.089736802707
CC322  HEL1  1  0.280633096214  0.073666921749
CC322  HEL2  1  0.281523994932  0.067464972838
CC322    CL  1  0.347450500075  0.110698234855
CC322   CCL  1  0.347450500075  0.110698234855
CC322  CTL1  1  0.338541512893  0.041840000000
CC322  CTL2  1  0.338541512893  0.041840000000
CC322  CTL3  1  0.338541512893  0.041840000000
CC322  CTL5  1  0.338541512893  0.041840000000
CC322  CEL1  1  0.355468588538  0.109105371453
CC322  CEL2  1  0.354577689820  0.105847757841
CC322  CRL1  1  0.338541512893  0.041840000000
CC322  CRL2  1  0.338541512893  0.041840000000
CC322   OBL  1  0.293996576986  0.144938011577
CC322   OCL  1  0.320723538531  0.144938011577
CC322   O2L  1  0.320723538531  0.144938011577
CC322   OHL  1  0.326959829558  0.163176000000
CC322   OSL  1  0.316269044940  0.132309697301
CC322  OSLP  1  0.316269044940  0.132309697301
CC322  NH3L  1  0.334087019303  0.187114168357
CC322   NTL  1  0.334087019303  0.187114168357
CC322    SL  1  0.356359487256  0.286840588481
CC322    PL  1  0.360813980847  0.320014464673
CC322 HCA1A  1  0.288651184677  0.088756043175
CC322 HCA2A  1  0.288651184677  0.078275472531
CC322 HCA3A  1  0.288651184677  0.064818249282
CC322 CC30A  1  0.338541512893  0.041840000000
CC322 CC31A  1  0.338541512893  0.041840000000
CC322 CC32A  1  0.338541512893  0.041840000000
CC322 CC33A  1  0.338541512893  0.041840000000
CC322 CC326A  1  0.338541512893  0.041840000000
CC322 HCA25A  1  0.285087589805  0.078275472531
CC322 CC325A  1  0.338541512893  0.041840000000
CC322 CC325B  1  0.338541512893  0.041840000000
CC322 OC305A  1  0.316269044940  0.132309697301
CC322 OC30A  1  0.316269044940  0.132309697301
CC322  HSIO  1  0.189271432669  0.089736802707
CC322  HSIA  1  0.286869387241  0.062058748940
CC322   HAL  1  0.286869387241  0.062058748940
CC322    AL  1  0.365268474438  0.337324864189
CC322    SI  1  0.365268474438  0.324091246411
CC322  SIH3  1  0.365268474438  0.324091246411
CC322  OSIH  1  0.326959829558  0.163176000000
CC322  OSIE  1  0.326959829558  0.163176000000
CC322  OSIA  1  0.326959829558  0.163176000000
CC322   OAL  1  0.326959829558  0.163176000000
CC322    HT  1  0.189271432669  0.089736802707
CC322    OT  1  0.326799467788  0.163176000000
CC322   DUM  1  0.169270756447  0.000000000000
CC322    CM  1  0.356359487256  0.138767581228
CC322   CPA  1  0.329632525712  0.125520000000
CC322   CPB  1  0.329632525712  0.125520000000
CC322   CPM  1  0.329632525712  0.125520000000
CC322   CST  1  0.308518226092  0.100764063435
CC322  CT1X  1  0.338541512893  0.041840000000
CC322  CT2X  1  0.338541512893  0.041840000000
CC322  CT3X  1  0.338541512893  0.041840000000
CC322    HB  1  0.286869387241  0.062058748940
CC322   NPH  1  0.334087019303  0.187114168357
CC322    OM  1  0.320723538531  0.144938011577
CC322   OST  1  0.320010819556  0.169954883425
CC322   POT  1  0.326403017859  0.123410269913
CC322   CAL  1  0.291056611216  0.144938011577
CC322    MG  1  0.274842254546  0.051243325419
CC322   CES  1  0.356359487256  0.182376331798
CC322    ZN  1  0.266378716724  0.209200000000
CC322    FE  1  0.227179173126  0.000000000000
CC322    HE  1  0.301123766731  0.061020452073
CC322    NE  1  0.305578260322  0.122698965603
CC322  CLAL  1  0.339272049842  0.072469005789
CC322    AG  1  0.300901042052  0.893457908130
CC322    AU  1  0.300722862308  0.962320000000
CC322    CU  1  0.285800308779  0.908997471504
CC322    NI  1  0.282949432881  0.994525446633
CC322    PB  1  0.328073452955  0.716185437439
CC322    PD  1  0.294842930769  1.037598257516
CC322    PT  1  0.296001099102  1.168527606863
CC322   CAP  1  0.346773417049  0.110698234855
CC322    FA  1  0.320723538531  0.144938011577
CC322    CN  1  0.325178032121  0.187114168357
CC322    NC  1  0.334087019303  0.324091246411
CC322   OCA  1  0.293996576986  0.144938011577
CC322   COA  1  0.347450500075  0.138767581228
CC322   CF1  1  0.338541512893  0.102486650838
CC322   CF2  1  0.351904993665  0.085746484010
CC322   CF3  1  0.374177461619  0.059170695450
CC322   HF1  1  0.286869387241  0.070011711020
CC322   HF2  1  0.285087589805  0.072469005789
CC322    F1  1  0.314487247504  0.153729976257
CC322    F2  1  0.314487247504  0.135577095411
CC322    F3  1  0.311814551349  0.130309939452
CC322    OX  1  0.320723538531  0.144938011577
CC322    HX  1  0.189271432669  0.089736802707
CC322  HPER  1  0.189271432669  0.089736802707
CC322  OPER  1  0.318427692534  0.188901923946
CC322   LIT  1  0.284864865125  0.020196198771
CC322   RUB  1  0.338541512893  0.162045623205
CC322   BAR  1  0.337650614175  0.162045623205
CC322   CAD  1  0.290165712498  0.144938011577
CC322  ON2B  1  0.326959829558  0.163176000000
CC322    SP  1  0.365268474438  0.280671252536
CC322   HNP  1  0.290272620344  0.072469005789
CC322  HNE1  1  0.280633096214  0.073666921749
CC322  HNE2  1  0.281523994932  0.067464972838
CC322  CN3D  1  0.338541512893  0.125520000000
CC322  CNE1  1  0.355468588538  0.109105371453
CC322  CNE2  1  0.354577689820  0.105847757841
CC322   CNA  1  0.346773417049  0.110698234855
CC322  CNA2  1  0.338541512893  0.110698234855
CC322   CNG  1  0.347450500075  0.138767581228
CC322  NN1C  1  0.334087019303  0.187114168357
CC322  NN2C  1  0.334087019303  0.187114168357
CC322  NN3I  1  0.334087019303  0.187114168357
CC322   NNG  1  0.334087019303  0.187114168357
CC322   FNA  1  0.320723538531  0.144938011577
CC322  ON2M  1  0.316269044940  0.132309697301
CC322   CN6  1  0.338541512893  0.041840000000
CC322  CN7E  1  0.338541512893  0.041840000000
CC322  CT2P  1  0.338541512893  0.041840000000
CC322  CTD1  1  0.338541512893  0.041840000000
CC322  CPD1  1  0.338541512893  0.041840000000
CC322  CC1A  1  0.355468588538  0.109105371453
CC322  CC1B  1  0.355468588538  0.109105371453
CC322   CC2  1  0.354577689820  0.105847757841
CC322   NS1  1  0.334087019303  0.187114168357
CC322   NS2  1  0.334087019303  0.187114168357
CC322   NHL  1  0.307360057758  0.187114168357
CC322  CTO1  1  0.338541512893  0.041840000000
CC322  CEL3  1  0.355468588538  0.109105371453
CC322  CTO2  1  0.338541512893  0.041840000000
CC322  HN3B  1  0.249451641079  0.089736802707
CC322  CN1A  1  0.347450500075  0.110698234855
CC322  CN3A  1  0.329632525712  0.177512086349
CC322  CN3B  1  0.329632525712  0.177512086349
CC322  CN3C  1  0.329632525712  0.177512086349
CC321C     C  1  0.347450500075  0.138767581228
CC321C    CA  1  0.346773417049  0.110698234855
CC321C    CC  1  0.347450500075  0.110698234855
CC321C    CD  1  0.347450500075  0.110698234855
CC321C   CE1  1  0.355468588538  0.109105371453
CC321C   CE2  1  0.354577689820  0.105847757841
CC321C   CP1  1  0.338541512893  0.041840000000
CC321C   CP2  1  0.338541512893  0.041840000000
CC321C   CP3  1  0.338541512893  0.041840000000
CC321C  CPH1  1  0.329632525712  0.093557084179
CC321C  CPH2  1  0.329632525712  0.093557084179
CC321C    CS  1  0.365268474438  0.138767581228
CC321C   CPT  1  0.334977918021  0.131646486622
CC321C    CY  1  0.346559601357  0.113045454929
CC321C   CAI  1  0.346559601357  0.113045454929
CC321C    CT  1  0.338541512893  0.041840000000
CC321C   CT1  1  0.338541512893  0.041840000000
CC321C   CT2  1  0.338541512893  0.041840000000
CC321C  CT2A  1  0.338541512893  0.041840000000
CC321C   CT3  1  0.338541512893  0.041840000000
CC321C    C3  1  0.371950214824  0.059170695450
CC321C     H  1  0.189271432669  0.089736802707
CC321C    HA  1  0.286869387241  0.062058748940
CC321C   HB1  1  0.286869387241  0.062058748940
CC321C   HB2  1  0.288651184677  0.070011711020
CC321C   HE1  1  0.280633096214  0.073666921749
CC321C   HE2  1  0.281523994932  0.067464972838
CC321C    HC  1  0.189271432669  0.089736802707
CC321C    HP  1  0.290272620344  0.072469005789
CC321C   HR1  1  0.249451641079  0.089736802707
CC321C   HR2  1  0.231633666716  0.089736802707
CC321C   HR3  1  0.300054688270  0.036952087465
CC321C    HS  1  0.209361198763  0.132309697301
CC321C   HA1  1  0.288651184677  0.088756043175
CC321C   HA2  1  0.288651184677  0.077149148019
CC321C   HA3  1  0.288651184677  0.064818249282
CC321C     N  1  0.334087019303  0.004184000000
CC321C   NC2  1  0.334087019303  0.187114168357
CC321C   NH1  1  0.307360057758  0.187114168357
CC321C   NH2  1  0.334087019303  0.187114168357
CC321C   NH3  1  0.334087019303  0.187114168357
CC321C    NP  1  0.334087019303  0.187114168357
CC321C   NR1  1  0.334087019303  0.187114168357
CC321C   NR2  1  0.334087019303  0.187114168357
CC321C   NR3  1  0.334087019303  0.187114168357
CC321C    NY  1  0.334087019303  0.187114168357
CC321C     O  1  0.293996576986  0.144938011577
CC321C    OB  1  0.293996576986  0.144938011577
CC321C    OC  1  0.320723538531  0.144938011577
CC321C   OH1  1  0.326959829558  0.163176000000
CC321C    OS  1  0.326959829558  0.163176000000
CC321C     S  1  0.347450500075  0.280671252536
CC321C    SM  1  0.345223253279  0.257919081884
CC321C    SS  1  0.365268474438  0.286840588481
CC321C  HGA1  1  0.288651184677  0.088756043175
CC321C  HGA2  1  0.288651184677  0.078275472531
CC321C  HGA3  1  0.288651184677  0.064818249282
CC321C  HGA4  1  0.280633096214  0.073666921749
CC321C  HGA5  1  0.281523994932  0.067464972838
CC321C  HGA6  1  0.286869387241  0.070011711020
CC321C  HGA7  1  0.285087589805  0.072469005789
CC321C HGAAM0  1  0.283305792369  0.070011711020
CC321C HGAAM1  1  0.283305792369  0.070011711020
CC321C HGAAM2  1  0.281523994932  0.083680000000
CC321C  HGP1  1  0.189271432669  0.089736802707
CC321C  HGP2  1  0.189271432669  0.089736802707
CC321C  HGP3  1  0.209361198763  0.132309697301
CC321C  HGP4  1  0.189271432669  0.089736802707
CC321C  HGP5  1  0.231633666716  0.089736802707
CC321C HGPAM1  1  0.247224394284  0.039692909190
CC321C HGPAM2  1  0.247224394284  0.041840000000
CC321C HGPAM3  1  0.246778944925  0.045833423612
CC321C HGR51  1  0.290272620344  0.072469005789
CC321C HGR52  1  0.249451641079  0.089736802707
CC321C HGR53  1  0.231633666716  0.089736802707
CC321C HGR61  1  0.290272620344  0.072469005789
CC321C HGR62  1  0.267269615442  0.089736802707
CC321C HGR63  1  0.249451641079  0.089736802707
CC321C HGR71  1  0.290272620344  0.072469005789
CC321C HGTIP3  1  0.189271432669  0.089736802707
CC321C CG1T1  1  0.333196120584  0.170981810495
CC321C CG1T2  1  0.346782326036  0.134409982486
CC321C CG1N1  1  0.335868816739  0.177512086349
CC321C CG2D1  1  0.355468588538  0.109105371453
CC321C CG2D2  1  0.354577689820  0.105847757841
CC321C CG2D1O  1  0.355468588538  0.109105371453
CC321C CG2D2O  1  0.355468588538  0.109105371453
CC321C CG2DC1  1  0.355468588538  0.109105371453
CC321C CG2DC2  1  0.355468588538  0.109105371453
CC321C CG2DC3  1  0.354577689820  0.105847757841
CC321C CG2N1  1  0.347450500075  0.138767581228
CC321C CG2N2  1  0.347450500075  0.138767581228
CC321C CG2O1  1  0.347450500075  0.138767581228
CC321C CG2O2  1  0.320723538531  0.130979917850
CC321C CG2O3  1  0.347450500075  0.110698234855
CC321C CG2O4  1  0.329632525712  0.102486650838
CC321C CG2O5  1  0.347450500075  0.125520000000
CC321C CG2O6  1  0.347450500075  0.110698234855
CC321C CG2O7  1  0.308518226092  0.100764063435
CC321C CG2R51  1  0.356359487256  0.093557084179
CC321C CG2R52  1  0.365268474438  0.059170695450
CC321C CG2R53  1  0.365268474438  0.059170695450
CC321C CG2R57  1  0.356359487256  0.093557084179
CC321C CG25C1  1  0.355468588538  0.109105371453
CC321C CG25C2  1  0.355468588538  0.109105371453
CC321C CG251O  1  0.355468588538  0.109105371453
CC321C CG252O  1  0.355468588538  0.109105371453
CC321C CG2R61  1  0.346773417049  0.110698234855
CC321C CG2R62  1  0.338541512893  0.125520000000
CC321C CG2R63  1  0.338541512893  0.132309697301
CC321C CG2R64  1  0.356359487256  0.083680000000
CC321C CG2R66  1  0.338541512893  0.110698234855
CC321C CG2R67  1  0.346773417049  0.110698234855
CC321C CG2RC0  1  0.334977918021  0.131646486622
CC321C CG2R71  1  0.346987232741  0.108300154755
CC321C CG2RC7  1  0.334977918021  0.131646486622
CC321C CG301  1  0.338541512893  0.041840000000
CC321C CG302  1  0.374177461619  0.059170695450
CC321C CG311  1  0.338541512893  0.041840000000
CC321C CG312  1  0.351904993665  0.085746484010
CC321C CG314  1  0.338541512893  0.041840000000
CC321C CG321  1  0.338541512893  0.041840000000
CC321C CG322  1  0.338541512893  0.102486650838
CC321C CG323  1  0.365268474438  0.138767581228
CC321C CG324  1  0.338541512893  0.041840000000
CC321C CG331  1  0.338541512893  0.041840000000
CC321C CG334  1  0.338541512893  0.041840000000
CC321C CG3C50  1  0.338541512893  0.041840000000
CC321C CG3C51  1  0.338541512893  0.041840000000
CC321C CG3C52  1  0.338541512893  0.041840000000
CC321C CG3C53  1  0.338541512893  0.041840000000
CC321C CG3C54  1  0.338541512893  0.041840000000
CC321C CG3C31  1  0.338541512893  0.041840000000
CC321C CG3C41  1  0.338541512893  0.041840000000
CC321C CG3RC1  1  0.338541512893  0.041840000000
CC321C CG3AM0  1  0.344777803920  0.110698234855
CC321C CG3AM1  1  0.345668702638  0.116852760686
CC321C CG3AM2  1  0.346559601357  0.118341390899
CC321C NG1T1  1  0.328741626994  0.177512086349
CC321C NG2D1  1  0.334087019303  0.187114168357
CC321C NG2S0  1  0.334087019303  0.004184000000
CC321C NG2S1  1  0.307360057758  0.187114168357
CC321C NG2S2  1  0.334087019303  0.187114168357
CC321C NG2S3  1  0.334087019303  0.187114168357
CC321C NG2O1  1  0.334087019303  0.187114168357
CC321C NG2P1  1  0.334087019303  0.187114168357
CC321C NG2R43  1  0.334087019303  0.187114168357
CC321C NG2R50  1  0.334087019303  0.187114168357
CC321C NG2R51  1  0.334087019303  0.187114168357
CC321C NG2R52  1  0.334087019303  0.187114168357
CC321C NG2R53  1  0.334087019303  0.187114168357
CC321C NG2R57  1  0.334087019303  0.187114168357
CC321C NG2R60  1  0.337650614175  0.102486650838
CC321C NG2R61  1  0.334087019303  0.187114168357
CC321C NG2R62  1  0.352795892384  0.093557084179
CC321C NG2R67  1  0.334087019303  0.187114168357
CC321C NG2RC0  1  0.334087019303  0.187114168357
CC321C NG301  1  0.347450500075  0.078275472531
CC321C NG311  1  0.347450500075  0.088756043175
CC321C NG321  1  0.346559601357  0.102486650838
CC321C NG331  1  0.345668702638  0.110698234855
CC321C NG3C51  1  0.334087019303  0.187114168357
CC321C NG3N1  1  0.351904993665  0.102486650838
CC321C NG3P0  1  0.334087019303  0.187114168357
CC321C NG3P1  1  0.334087019303  0.187114168357
CC321C NG3P2  1  0.334087019303  0.187114168357
CC321C NG3P3  1  0.334087019303  0.187114168357
CC321C OG2D1  1  0.293996576986  0.144938011577
CC321C OG2D2  1  0.320723538531  0.144938011577
CC321C OG2D3  1  0.293996576986  0.144938011577
CC321C OG2D4  1  0.320723538531  0.144938011577
CC321C OG2D5  1  0.320010819556  0.169954883425
CC321C OG2N1  1  0.320723538531  0.144938011577
CC321C OG2P1  1  0.320723538531  0.144938011577
CC321C OG2R50  1  0.320723538531  0.144938011577
CC321C OG3R60  1  0.316269044940  0.132309697301
CC321C OG301  1  0.316269044940  0.132309697301
CC321C OG302  1  0.316269044940  0.132309697301
CC321C OG303  1  0.316269044940  0.132309697301
CC321C OG304  1  0.316269044940  0.132309697301
CC321C OG311  1  0.326514380198  0.183381431383
CC321C OG312  1  0.325178032121  0.144938011577
CC321C OG3C31  1  0.316269044940  0.132309697301
CC321C OG3C51  1  0.316269044940  0.132309697301
CC321C OG3C61  1  0.316269044940  0.132309697301
CC321C OGTIP3  1  0.326799467788  0.163176000000
CC321C SG2D1  1  0.351904993665  0.314496560236
CC321C SG2R50  1  0.347450500075  0.280671252536
CC321C SG311  1  0.347450500075  0.280671252536
CC321C SG301  1  0.345223253279  0.257919081884
CC321C SG302  1  0.365268474438  0.286840588481
CC321C SG3O1  1  0.356359487256  0.286840588481
CC321C SG3O2  1  0.347450500075  0.247528778125
CC321C SG3O3  1  0.347450500075  0.247528778125
CC321C  FGA1  1  0.314487247504  0.153729976257
CC321C  FGA2  1  0.314487247504  0.135577095411
CC321C  FGA3  1  0.311814551349  0.130309939452
CC321C  FGP1  1  0.311814551349  0.130309939452
CC321C  FGR1  1  0.320723538531  0.144938011577
CC321C CLGA1  1  0.339432411611  0.245040988571
CC321C CLGA3  1  0.339432411611  0.232955260941
CC321C BRGA1  1  0.344777803920  0.289876023155
CC321C BRGA2  1  0.351904993665  0.304599797767
CC321C BRGA3  1  0.347450500075  0.307459952514
CC321C   SOD  1  0.294954293108  0.090610410351
CC321C   CLA  1  0.371504765465  0.162045623205
CC321C   PG0  1  0.360813980847  0.320014464673
CC321C   PG1  1  0.360813980847  0.320014464673
CC321C   PG2  1  0.360813980847  0.320014464673
CC321C  ALG1  1  0.347450500075  0.337324864189
CC321C   LPH  1  0.169270756447  0.000000000000
CC321C CLGR1  1  0.334977918021  0.200657590935
CC321C BRGR1  1  0.345668702638  0.236682781799
CC321C  IGR1  1  0.368832069310  0.301712530731
CC321C SG2P1  1  0.355798221064  0.332305491450
CC321C OG2S1  1  0.318906105146  0.157831660601
CC321C SG2P2  1  0.352314807076  0.329421919951
CC321C SEGD1  1  0.363041227642  0.330244580395
CC321C BG201  1  0.396449929572  0.081561175077
CC321C CC301  1  0.338541512893  0.041840000000
CC321C CC3062  1  0.338541512893  0.041840000000
CC321C CC311  1  0.338541512893  0.041840000000
CC321C CC3161  1  0.338541512893  0.041840000000
CC321C CC3162  1  0.338541512893  0.041840000000
CC321C CC3163  1  0.338541512893  0.041840000000
CC321C CC321  1  0.338541512893  0.041840000000
CC321C CC3261  1  0.338541512893  0.041840000000
CC321C CC3263  1  0.338541512893  0.041840000000
CC321C CC331  1  0.338541512893  0.041840000000
CC321C CC2O1  1  0.347450500075  0.138767581228
CC321C CC2O2  1  0.347450500075  0.110698234855
CC321C CC2O3  1  0.347450500075  0.125520000000
CC321C CC2O4  1  0.329632525712  0.102486650838
CC321C CC2O5  1  0.320723538531  0.130979917850
CC321C OC2D1  1  0.293996576986  0.144938011577
CC321C OC2D2  1  0.320723538531  0.144938011577
CC321C OC2D3  1  0.293996576986  0.144938011577
CC321C OC2D4  1  0.293996576986  0.144938011577
CC321C OC3C61  1  0.316269044940  0.132309697301
CC321C OC311  1  0.326514380198  0.183381431383
CC321C NC2D1  1  0.307360057758  0.187114168357
CC321C  HCP1  1  0.189271432669  0.089736802707
CC321C  HCA1  1  0.288651184677  0.088756043175
CC321C  HCA2  1  0.288651184677  0.078275472531
CC321C  HCA3  1  0.288651184677  0.064818249282
CC321C CC312  1  0.338541512893  0.041840000000
CC321C CC322  1  0.338541512893  0.041840000000
CC321C  HCR1  1  0.240542653898  0.089736802707
CC321C HCA3M  1  0.288651184677  0.064818249282
CC321C CC321C  1  0.338541512893  0.041840000000
CC321C CC321D  1  0.338541512893  0.041840000000
CC321C CC311C  1  0.338541512893  0.041840000000
CC321C CC311D  1  0.338541512893  0.041840000000
CC321C OC301  1  0.316269044940  0.132309697301
CC321C OC302  1  0.316269044940  0.132309697301
CC321C HCP1M  1  0.189271432669  0.089736802707
CC321C OC311M  1  0.326514380198  0.183381431383
CC321C OC3C5M  1  0.316269044940  0.132309697301
CC321C CC322C  1  0.338541512893  0.041840000000
CC321C HCA2C2  1  0.285087589805  0.078275472531
CC321C CC312C  1  0.338541512893  0.041840000000
CC321C HCA1C2  1  0.288651184677  0.088756043175
CC321C OC3C51  1  0.316269044940  0.132309697301
CC321C CC3152  1  0.338541512893  0.041840000000
CC321C CC3051  1  0.338541512893  0.041840000000
CC321C CC3251  1  0.338541512893  0.041840000000
CC321C CC3151  1  0.338541512893  0.041840000000
CC321C CC3153  1  0.338541512893  0.041840000000
CC321C OC2DP  1  0.320723538531  0.144938011577
CC321C OC312  1  0.326959829558  0.163176000000
CC321C OC30P  1  0.326959829558  0.163176000000
CC321C    PC  1  0.360813980847  0.320014464673
CC321C    SC  1  0.356359487256  0.286840588481
CC321C CC312D  1  0.338541512893  0.041840000000
CC321C OC303  1  0.316269044940  0.132309697301
CC321C NC311  1  0.347450500075  0.088756043175
CC321C   HN1  1  0.189271432669  0.089736802707
CC321C   HN2  1  0.189271432669  0.089736802707
CC321C   HN3  1  0.267269615442  0.089736802707
CC321C   HN4  1  0.189271432669  0.089736802707
CC321C   HN5  1  0.189271432669  0.089736802707
CC321C   HN6  1  0.286869387241  0.062058748940
CC321C   HN7  1  0.286869387241  0.062058748940
CC321C   HN8  1  0.288651184677  0.070011711020
CC321C   HN9  1  0.288651184677  0.064818249282
CC321C   NN1  1  0.334087019303  0.187114168357
CC321C   NN2  1  0.334087019303  0.187114168357
CC321C  NN2B  1  0.334087019303  0.187114168357
CC321C  NN2G  1  0.334087019303  0.187114168357
CC321C  NN2U  1  0.334087019303  0.187114168357
CC321C   NN3  1  0.334087019303  0.187114168357
CC321C  NN3A  1  0.334087019303  0.187114168357
CC321C  NN3G  1  0.334087019303  0.187114168357
CC321C   NN4  1  0.334087019303  0.187114168357
CC321C   NN6  1  0.334087019303  0.187114168357
CC321C   ON1  1  0.320723538531  0.144938011577
CC321C  ON1C  1  0.320723538531  0.144938011577
CC321C   ON2  1  0.326959829558  0.163176000000
CC321C   ON3  1  0.320723538531  0.144938011577
CC321C   ON4  1  0.326959829558  0.163176000000
CC321C   ON5  1  0.326959829558  0.163176000000
CC321C   ON6  1  0.326959829558  0.163176000000
CC321C  ON6B  1  0.326959829558  0.163176000000
CC321C   CN1  1  0.338541512893  0.132309697301
CC321C  CN1T  1  0.338541512893  0.132309697301
CC321C   CN2  1  0.338541512893  0.132309697301
CC321C   CN3  1  0.338541512893  0.125520000000
CC321C  CN3T  1  0.338541512893  0.125520000000
CC321C   CN4  1  0.338541512893  0.114583559030
CC321C   CN5  1  0.338541512893  0.114583559030
CC321C  CN5G  1  0.338541512893  0.114583559030
CC321C   CN7  1  0.338541512893  0.041840000000
CC321C  CN7B  1  0.338541512893  0.041840000000
CC321C   CN8  1  0.338541512893  0.041840000000
CC321C  CN8B  1  0.338541512893  0.041840000000
CC321C   CN9  1  0.338541512893  0.041840000000
CC321C     P  1  0.360813980847  0.320014464673
CC321C    P2  1  0.360813980847  0.320014464673
CC321C    P3  1  0.360813980847  0.320014464673
CC321C    P4  1  0.360813980847  0.320014464673
CC321C   HOL  1  0.189271432669  0.089736802707
CC321C  HAL1  1  0.286869387241  0.062058748940
CC321C  HAL2  1  0.288651184677  0.070011711020
CC321C  HAL3  1  0.288651184677  0.064818249282
CC321C   HBL  1  0.286869387241  0.062058748940
CC321C   HCL  1  0.189271432669  0.089736802707
CC321C    HL  1  0.231633666716  0.089736802707
CC321C  HEL1  1  0.280633096214  0.073666921749
CC321C  HEL2  1  0.281523994932  0.067464972838
CC321C    CL  1  0.347450500075  0.110698234855
CC321C   CCL  1  0.347450500075  0.110698234855
CC321C  CTL1  1  0.338541512893  0.041840000000
CC321C  CTL2  1  0.338541512893  0.041840000000
CC321C  CTL3  1  0.338541512893  0.041840000000
CC321C  CTL5  1  0.338541512893  0.041840000000
CC321C  CEL1  1  0.355468588538  0.109105371453
CC321C  CEL2  1  0.354577689820  0.105847757841
CC321C  CRL1  1  0.338541512893  0.041840000000
CC321C  CRL2  1  0.338541512893  0.041840000000
CC321C   OBL  1  0.293996576986  0.144938011577
CC321C   OCL  1  0.320723538531  0.144938011577
CC321C   O2L  1  0.320723538531  0.144938011577
CC321C   OHL  1  0.326959829558  0.163176000000
CC321C   OSL  1  0.316269044940  0.132309697301
CC321C  OSLP  1  0.316269044940  0.132309697301
CC321C  NH3L  1  0.334087019303  0.187114168357
CC321C   NTL  1  0.334087019303  0.187114168357
CC321C    SL  1  0.356359487256  0.286840588481
CC321C    PL  1  0.360813980847  0.320014464673
CC321C HCA1A  1  0.288651184677  0.088756043175
CC321C HCA2A  1  0.288651184677  0.078275472531
CC321C HCA3A  1  0.288651184677  0.064818249282
CC321C CC30A  1  0.338541512893  0.041840000000
CC321C CC31A  1  0.338541512893  0.041840000000
CC321C CC32A  1  0.338541512893  0.041840000000
CC321C CC33A  1  0.338541512893  0.041840000000
CC321C CC326A  1  0.338541512893  0.041840000000
CC321C HCA25A  1  0.285087589805  0.078275472531
CC321C CC325A  1  0.338541512893  0.041840000000
CC321C CC325B  1  0.338541512893  0.041840000000
CC321C OC305A  1  0.316269044940  0.132309697301
CC321C OC30A  1  0.316269044940  0.132309697301
CC321C  HSIO  1  0.189271432669  0.089736802707
CC321C  HSIA  1  0.286869387241  0.062058748940
CC321C   HAL  1  0.286869387241  0.062058748940
CC321C    AL  1  0.365268474438  0.337324864189
CC321C    SI  1  0.365268474438  0.324091246411
CC321C  SIH3  1  0.365268474438  0.324091246411
CC321C  OSIH  1  0.326959829558  0.163176000000
CC321C  OSIE  1  0.326959829558  0.163176000000
CC321C  OSIA  1  0.326959829558  0.163176000000
CC321C   OAL  1  0.326959829558  0.163176000000
CC321C    HT  1  0.189271432669  0.089736802707
CC321C    OT  1  0.326799467788  0.163176000000
CC321C   DUM  1  0.169270756447  0.000000000000
CC321C    CM  1  0.356359487256  0.138767581228
CC321C   CPA  1  0.329632525712  0.125520000000
CC321C   CPB  1  0.329632525712  0.125520000000
CC321C   CPM  1  0.329632525712  0.125520000000
CC321C   CST  1  0.308518226092  0.100764063435
CC321C  CT1X  1  0.338541512893  0.041840000000
CC321C  CT2X  1  0.338541512893  0.041840000000
CC321C  CT3X  1  0.338541512893  0.041840000000
CC321C    HB  1  0.286869387241  0.062058748940
CC321C   NPH  1  0.334087019303  0.187114168357
CC321C    OM  1  0.320723538531  0.144938011577
CC321C   OST  1  0.320010819556  0.169954883425
CC321C   POT  1  0.326403017859  0.123410269913
CC321C   CAL  1  0.291056611216  0.144938011577
CC321C    MG  1  0.274842254546  0.051243325419
CC321C   CES  1  0.356359487256  0.182376331798
CC321C    ZN  1  0.266378716724  0.209200000000
CC321C    FE  1  0.227179173126  0.000000000000
CC321C    HE  1  0.301123766731  0.061020452073
CC321C    NE  1  0.305578260322  0.122698965603
CC321C  CLAL  1  0.339272049842  0.072469005789
CC321C    AG  1  0.300901042052  0.893457908130
CC321C    AU  1  0.300722862308  0.962320000000
CC321C    CU  1  0.285800308779  0.908997471504
CC321C    NI  1  0.282949432881  0.994525446633
CC321C    PB  1  0.328073452955  0.716185437439
CC321C    PD  1  0.294842930769  1.037598257516
CC321C    PT  1  0.296001099102  1.168527606863
CC321C   CAP  1  0.346773417049  0.110698234855
CC321C    FA  1  0.320723538531  0.144938011577
CC321C    CN  1  0.325178032121  0.187114168357
CC321C    NC  1  0.334087019303  0.324091246411
CC321C   OCA  1  0.293996576986  0.144938011577
CC321C   COA  1  0.347450500075  0.138767581228
CC321C   CF1  1  0.338541512893  0.102486650838
CC321C   CF2  1  0.351904993665  0.085746484010
CC321C   CF3  1  0.374177461619  0.059170695450
CC321C   HF1  1  0.286869387241  0.070011711020
CC321C   HF2  1  0.285087589805  0.072469005789
CC321C    F1  1  0.314487247504  0.153729976257
CC321C    F2  1  0.314487247504  0.135577095411
CC321C    F3  1  0.311814551349  0.130309939452
CC321C    OX  1  0.320723538531  0.144938011577
CC321C    HX  1  0.189271432669  0.089736802707
CC321C  HPER  1  0.189271432669  0.089736802707
CC321C  OPER  1  0.318427692534  0.188901923946
CC321C   LIT  1  0.284864865125  0.020196198771
CC321C   RUB  1  0.338541512893  0.162045623205
CC321C   BAR  1  0.337650614175  0.162045623205
CC321C   CAD  1  0.290165712498  0.144938011577
CC321C  ON2B  1  0.326959829558  0.163176000000
CC321C    SP  1  0.365268474438  0.280671252536
CC321C   HNP  1  0.290272620344  0.072469005789
CC321C  HNE1  1  0.280633096214  0.073666921749
CC321C  HNE2  1  0.281523994932  0.067464972838
CC321C  CN3D  1  0.338541512893  0.125520000000
CC321C  CNE1  1  0.355468588538  0.109105371453
CC321C  CNE2  1  0.354577689820  0.105847757841
CC321C   CNA  1  0.346773417049  0.110698234855
CC321C  CNA2  1  0.338541512893  0.110698234855
CC321C   CNG  1  0.347450500075  0.138767581228
CC321C  NN1C  1  0.334087019303  0.187114168357
CC321C  NN2C  1  0.334087019303  0.187114168357
CC321C  NN3I  1  0.334087019303  0.187114168357
CC321C   NNG  1  0.334087019303  0.187114168357
CC321C   FNA  1  0.320723538531  0.144938011577
CC321C  ON2M  1  0.316269044940  0.132309697301
CC321C   CN6  1  0.338541512893  0.041840000000
CC321C  CN7E  1  0.338541512893  0.041840000000
CC321C  CT2P  1  0.338541512893  0.041840000000
CC321C  CTD1  1  0.338541512893  0.041840000000
CC321C  CPD1  1  0.338541512893  0.041840000000
CC321C  CC1A  1  0.355468588538  0.109105371453
CC321C  CC1B  1  0.355468588538  0.109105371453
CC321C   CC2  1  0.354577689820  0.105847757841
CC321C   NS1  1  0.334087019303  0.187114168357
CC321C   NS2  1  0.334087019303  0.187114168357
CC321C   NHL  1  0.307360057758  0.187114168357
CC321C  CTO1  1  0.338541512893  0.041840000000
CC321C  CEL3  1  0.355468588538  0.109105371453
CC321C  CTO2  1  0.338541512893  0.041840000000
CC321C  HN3B  1  0.249451641079  0.089736802707
CC321C  CN1A  1  0.347450500075  0.110698234855
CC321C  CN3A  1  0.329632525712  0.177512086349
CC321C  CN3B  1  0.329632525712  0.177512086349
CC321C  CN3C  1  0.329632525712  0.177512086349
CC321D     C  1  0.347450500075  0.138767581228
CC321D    CA  1  0.346773417049  0.110698234855
CC321D    CC  1  0.347450500075  0.110698234855
CC321D    CD  1  0.347450500075  0.110698234855
CC321D   CE1  1  0.355468588538  0.109105371453
CC321D   CE2  1  0.354577689820  0.105847757841
CC321D   CP1  1  0.338541512893  0.041840000000
CC321D   CP2  1  0.338541512893  0.041840000000
CC321D   CP3  1  0.338541512893  0.041840000000
CC321D  CPH1  1  0.329632525712  0.093557084179
CC321D  CPH2  1  0.329632525712  0.093557084179
CC321D    CS  1  0.365268474438  0.138767581228
CC321D   CPT  1  0.334977918021  0.131646486622
CC321D    CY  1  0.346559601357  0.113045454929
CC321D   CAI  1  0.346559601357  0.113045454929
CC321D    CT  1  0.338541512893  0.041840000000
CC321D   CT1  1  0.338541512893  0.041840000000
CC321D   CT2  1  0.338541512893  0.041840000000
CC321D  CT2A  1  0.338541512893  0.041840000000
CC321D   CT3  1  0.338541512893  0.041840000000
CC321D    C3  1  0.371950214824  0.059170695450
CC321D     H  1  0.189271432669  0.089736802707
CC321D    HA  1  0.286869387241  0.062058748940
CC321D   HB1  1  0.286869387241  0.062058748940
CC321D   HB2  1  0.288651184677  0.070011711020
CC321D   HE1  1  0.280633096214  0.073666921749
CC321D   HE2  1  0.281523994932  0.067464972838
CC321D    HC  1  0.189271432669  0.089736802707
CC321D    HP  1  0.290272620344  0.072469005789
CC321D   HR1  1  0.249451641079  0.089736802707
CC321D   HR2  1  0.231633666716  0.089736802707
CC321D   HR3  1  0.300054688270  0.036952087465
CC321D    HS  1  0.209361198763  0.132309697301
CC321D   HA1  1  0.288651184677  0.088756043175
CC321D   HA2  1  0.288651184677  0.077149148019
CC321D   HA3  1  0.288651184677  0.064818249282
CC321D     N  1  0.334087019303  0.004184000000
CC321D   NC2  1  0.334087019303  0.187114168357
CC321D   NH1  1  0.307360057758  0.187114168357
CC321D   NH2  1  0.334087019303  0.187114168357
CC321D   NH3  1  0.334087019303  0.187114168357
CC321D    NP  1  0.334087019303  0.187114168357
CC321D   NR1  1  0.334087019303  0.187114168357
CC321D   NR2  1  0.334087019303  0.187114168357
CC321D   NR3  1  0.334087019303  0.187114168357
CC321D    NY  1  0.334087019303  0.187114168357
CC321D     O  1  0.293996576986  0.144938011577
CC321D    OB  1  0.293996576986  0.144938011577
CC321D    OC  1  0.320723538531  0.144938011577
CC321D   OH1  1  0.326959829558  0.163176000000
CC321D    OS  1  0.326959829558  0.163176000000
CC321D     S  1  0.347450500075  0.280671252536
CC321D    SM  1  0.345223253279  0.257919081884
CC321D    SS  1  0.365268474438  0.286840588481
CC321D  HGA1  1  0.288651184677  0.088756043175
CC321D  HGA2  1  0.288651184677  0.078275472531
CC321D  HGA3  1  0.288651184677  0.064818249282
CC321D  HGA4  1  0.280633096214  0.073666921749
CC321D  HGA5  1  0.281523994932  0.067464972838
CC321D  HGA6  1  0.286869387241  0.070011711020
CC321D  HGA7  1  0.285087589805  0.072469005789
CC321D HGAAM0  1  0.283305792369  0.070011711020
CC321D HGAAM1  1  0.283305792369  0.070011711020
CC321D HGAAM2  1  0.281523994932  0.083680000000
CC321D  HGP1  1  0.189271432669  0.089736802707
CC321D  HGP2  1  0.189271432669  0.089736802707
CC321D  HGP3  1  0.209361198763  0.132309697301
CC321D  HGP4  1  0.189271432669  0.089736802707
CC321D  HGP5  1  0.231633666716  0.089736802707
CC321D HGPAM1  1  0.247224394284  0.039692909190
CC321D HGPAM2  1  0.247224394284  0.041840000000
CC321D HGPAM3  1  0.246778944925  0.045833423612
CC321D HGR51  1  0.290272620344  0.072469005789
CC321D HGR52  1  0.249451641079  0.089736802707
CC321D HGR53  1  0.231633666716  0.089736802707
CC321D HGR61  1  0.290272620344  0.072469005789
CC321D HGR62  1  0.267269615442  0.089736802707
CC321D HGR63  1  0.249451641079  0.089736802707
CC321D HGR71  1  0.290272620344  0.072469005789
CC321D HGTIP3  1  0.189271432669  0.089736802707
CC321D CG1T1  1  0.333196120584  0.170981810495
CC321D CG1T2  1  0.346782326036  0.134409982486
CC321D CG1N1  1  0.335868816739  0.177512086349
CC321D CG2D1  1  0.355468588538  0.109105371453
CC321D CG2D2  1  0.354577689820  0.105847757841
CC321D CG2D1O  1  0.355468588538  0.109105371453
CC321D CG2D2O  1  0.355468588538  0.109105371453
CC321D CG2DC1  1  0.355468588538  0.109105371453
CC321D CG2DC2  1  0.355468588538  0.109105371453
CC321D CG2DC3  1  0.354577689820  0.105847757841
CC321D CG2N1  1  0.347450500075  0.138767581228
CC321D CG2N2  1  0.347450500075  0.138767581228
CC321D CG2O1  1  0.347450500075  0.138767581228
CC321D CG2O2  1  0.320723538531  0.130979917850
CC321D CG2O3  1  0.347450500075  0.110698234855
CC321D CG2O4  1  0.329632525712  0.102486650838
CC321D CG2O5  1  0.347450500075  0.125520000000
CC321D CG2O6  1  0.347450500075  0.110698234855
CC321D CG2O7  1  0.308518226092  0.100764063435
CC321D CG2R51  1  0.356359487256  0.093557084179
CC321D CG2R52  1  0.365268474438  0.059170695450
CC321D CG2R53  1  0.365268474438  0.059170695450
CC321D CG2R57  1  0.356359487256  0.093557084179
CC321D CG25C1  1  0.355468588538  0.109105371453
CC321D CG25C2  1  0.355468588538  0.109105371453
CC321D CG251O  1  0.355468588538  0.109105371453
CC321D CG252O  1  0.355468588538  0.109105371453
CC321D CG2R61  1  0.346773417049  0.110698234855
CC321D CG2R62  1  0.338541512893  0.125520000000
CC321D CG2R63  1  0.338541512893  0.132309697301
CC321D CG2R64  1  0.356359487256  0.083680000000
CC321D CG2R66  1  0.338541512893  0.110698234855
CC321D CG2R67  1  0.346773417049  0.110698234855
CC321D CG2RC0  1  0.334977918021  0.131646486622
CC321D CG2R71  1  0.346987232741  0.108300154755
CC321D CG2RC7  1  0.334977918021  0.131646486622
CC321D CG301  1  0.338541512893  0.041840000000
CC321D CG302  1  0.374177461619  0.059170695450
CC321D CG311  1  0.338541512893  0.041840000000
CC321D CG312  1  0.351904993665  0.085746484010
CC321D CG314  1  0.338541512893  0.041840000000
CC321D CG321  1  0.338541512893  0.041840000000
CC321D CG322  1  0.338541512893  0.102486650838
CC321D CG323  1  0.365268474438  0.138767581228
CC321D CG324  1  0.338541512893  0.041840000000
CC321D CG331  1  0.338541512893  0.041840000000
CC321D CG334  1  0.338541512893  0.041840000000
CC321D CG3C50  1  0.338541512893  0.041840000000
CC321D CG3C51  1  0.338541512893  0.041840000000
CC321D CG3C52  1  0.338541512893  0.041840000000
CC321D CG3C53  1  0.338541512893  0.041840000000
CC321D CG3C54  1  0.338541512893  0.041840000000
CC321D CG3C31  1  0.338541512893  0.041840000000
CC321D CG3C41  1  0.338541512893  0.041840000000
CC321D CG3RC1  1  0.338541512893  0.041840000000
CC321D CG3AM0  1  0.344777803920  0.110698234855
CC321D CG3AM1  1  0.345668702638  0.116852760686
CC321D CG3AM2  1  0.346559601357  0.118341390899
CC321D NG1T1  1  0.328741626994  0.177512086349
CC321D NG2D1  1  0.334087019303  0.187114168357
CC321D NG2S0  1  0.334087019303  0.004184000000
CC321D NG2S1  1  0.307360057758  0.187114168357
CC321D NG2S2  1  0.334087019303  0.187114168357
CC321D NG2S3  1  0.334087019303  0.187114168357
CC321D NG2O1  1  0.334087019303  0.187114168357
CC321D NG2P1  1  0.334087019303  0.187114168357
CC321D NG2R43  1  0.334087019303  0.187114168357
CC321D NG2R50  1  0.334087019303  0.187114168357
CC321D NG2R51  1  0.334087019303  0.187114168357
CC321D NG2R52  1  0.334087019303  0.187114168357
CC321D NG2R53  1  0.334087019303  0.187114168357
CC321D NG2R57  1  0.334087019303  0.187114168357
CC321D NG2R60  1  0.337650614175  0.102486650838
CC321D NG2R61  1  0.334087019303  0.187114168357
CC321D NG2R62  1  0.352795892384  0.093557084179
CC321D NG2R67  1  0.334087019303  0.187114168357
CC321D NG2RC0  1  0.334087019303  0.187114168357
CC321D NG301  1  0.347450500075  0.078275472531
CC321D NG311  1  0.347450500075  0.088756043175
CC321D NG321  1  0.346559601357  0.102486650838
CC321D NG331  1  0.345668702638  0.110698234855
CC321D NG3C51  1  0.334087019303  0.187114168357
CC321D NG3N1  1  0.351904993665  0.102486650838
CC321D NG3P0  1  0.334087019303  0.187114168357
CC321D NG3P1  1  0.334087019303  0.187114168357
CC321D NG3P2  1  0.334087019303  0.187114168357
CC321D NG3P3  1  0.334087019303  0.187114168357
CC321D OG2D1  1  0.293996576986  0.144938011577
CC321D OG2D2  1  0.320723538531  0.144938011577
CC321D OG2D3  1  0.293996576986  0.144938011577
CC321D OG2D4  1  0.320723538531  0.144938011577
CC321D OG2D5  1  0.320010819556  0.169954883425
CC321D OG2N1  1  0.320723538531  0.144938011577
CC321D OG2P1  1  0.320723538531  0.144938011577
CC321D OG2R50  1  0.320723538531  0.144938011577
CC321D OG3R60  1  0.316269044940  0.132309697301
CC321D OG301  1  0.316269044940  0.132309697301
CC321D OG302  1  0.316269044940  0.132309697301
CC321D OG303  1  0.316269044940  0.132309697301
CC321D OG304  1  0.316269044940  0.132309697301
CC321D OG311  1  0.326514380198  0.183381431383
CC321D OG312  1  0.325178032121  0.144938011577
CC321D OG3C31  1  0.316269044940  0.132309697301
CC321D OG3C51  1  0.316269044940  0.132309697301
CC321D OG3C61  1  0.316269044940  0.132309697301
CC321D OGTIP3  1  0.326799467788  0.163176000000
CC321D SG2D1  1  0.351904993665  0.314496560236
CC321D SG2R50  1  0.347450500075  0.280671252536
CC321D SG311  1  0.347450500075  0.280671252536
CC321D SG301  1  0.345223253279  0.257919081884
CC321D SG302  1  0.365268474438  0.286840588481
CC321D SG3O1  1  0.356359487256  0.286840588481
CC321D SG3O2  1  0.347450500075  0.247528778125
CC321D SG3O3  1  0.347450500075  0.247528778125
CC321D  FGA1  1  0.314487247504  0.153729976257
CC321D  FGA2  1  0.314487247504  0.135577095411
CC321D  FGA3  1  0.311814551349  0.130309939452
CC321D  FGP1  1  0.311814551349  0.130309939452
CC321D  FGR1  1  0.320723538531  0.144938011577
CC321D CLGA1  1  0.339432411611  0.245040988571
CC321D CLGA3  1  0.339432411611  0.232955260941
CC321D BRGA1  1  0.344777803920  0.289876023155
CC321D BRGA2  1  0.351904993665  0.304599797767
CC321D BRGA3  1  0.347450500075  0.307459952514
CC321D   SOD  1  0.294954293108  0.090610410351
CC321D   CLA  1  0.371504765465  0.162045623205
CC321D   PG0  1  0.360813980847  0.320014464673
CC321D   PG1  1  0.360813980847  0.320014464673
CC321D   PG2  1  0.360813980847  0.320014464673
CC321D  ALG1  1  0.347450500075  0.337324864189
CC321D   LPH  1  0.169270756447  0.000000000000
CC321D CLGR1  1  0.334977918021  0.200657590935
CC321D BRGR1  1  0.345668702638  0.236682781799
CC321D  IGR1  1  0.368832069310  0.301712530731
CC321D SG2P1  1  0.355798221064  0.332305491450
CC321D OG2S1  1  0.318906105146  0.157831660601
CC321D SG2P2  1  0.352314807076  0.329421919951
CC321D SEGD1  1  0.363041227642  0.330244580395
CC321D BG201  1  0.396449929572  0.081561175077
CC321D CC301  1  0.338541512893  0.041840000000
CC321D CC3062  1  0.338541512893  0.041840000000
CC321D CC311  1  0.338541512893  0.041840000000
CC321D CC3161  1  0.338541512893  0.041840000000
CC321D CC3162  1  0.338541512893  0.041840000000
CC321D CC3163  1  0.338541512893  0.041840000000
CC321D CC321  1  0.338541512893  0.041840000000
CC321D CC3261  1  0.338541512893  0.041840000000
CC321D CC3263  1  0.338541512893  0.041840000000
CC321D CC331  1  0.338541512893  0.041840000000
CC321D CC2O1  1  0.347450500075  0.138767581228
CC321D CC2O2  1  0.347450500075  0.110698234855
CC321D CC2O3  1  0.347450500075  0.125520000000
CC321D CC2O4  1  0.329632525712  0.102486650838
CC321D CC2O5  1  0.320723538531  0.130979917850
CC321D OC2D1  1  0.293996576986  0.144938011577
CC321D OC2D2  1  0.320723538531  0.144938011577
CC321D OC2D3  1  0.293996576986  0.144938011577
CC321D OC2D4  1  0.293996576986  0.144938011577
CC321D OC3C61  1  0.316269044940  0.132309697301
CC321D OC311  1  0.326514380198  0.183381431383
CC321D NC2D1  1  0.307360057758  0.187114168357
CC321D  HCP1  1  0.189271432669  0.089736802707
CC321D  HCA1  1  0.288651184677  0.088756043175
CC321D  HCA2  1  0.288651184677  0.078275472531
CC321D  HCA3  1  0.288651184677  0.064818249282
CC321D CC312  1  0.338541512893  0.041840000000
CC321D CC322  1  0.338541512893  0.041840000000
CC321D  HCR1  1  0.240542653898  0.089736802707
CC321D HCA3M  1  0.288651184677  0.064818249282
CC321D CC321C  1  0.338541512893  0.041840000000
CC321D CC321D  1  0.338541512893  0.041840000000
CC321D CC311C  1  0.338541512893  0.041840000000
CC321D CC311D  1  0.338541512893  0.041840000000
CC321D OC301  1  0.316269044940  0.132309697301
CC321D OC302  1  0.316269044940  0.132309697301
CC321D HCP1M  1  0.189271432669  0.089736802707
CC321D OC311M  1  0.326514380198  0.183381431383
CC321D OC3C5M  1  0.316269044940  0.132309697301
CC321D CC322C  1  0.338541512893  0.041840000000
CC321D HCA2C2  1  0.285087589805  0.078275472531
CC321D CC312C  1  0.338541512893  0.041840000000
CC321D HCA1C2  1  0.288651184677  0.088756043175
CC321D OC3C51  1  0.316269044940  0.132309697301
CC321D CC3152  1  0.338541512893  0.041840000000
CC321D CC3051  1  0.338541512893  0.041840000000
CC321D CC3251  1  0.338541512893  0.041840000000
CC321D CC3151  1  0.338541512893  0.041840000000
CC321D CC3153  1  0.338541512893  0.041840000000
CC321D OC2DP  1  0.320723538531  0.144938011577
CC321D OC312  1  0.326959829558  0.163176000000
CC321D OC30P  1  0.326959829558  0.163176000000
CC321D    PC  1  0.360813980847  0.320014464673
CC321D    SC  1  0.356359487256  0.286840588481
CC321D CC312D  1  0.338541512893  0.041840000000
CC321D OC303  1  0.316269044940  0.132309697301
CC321D NC311  1  0.347450500075  0.088756043175
CC321D   HN1  1  0.189271432669  0.089736802707
CC321D   HN2  1  0.189271432669  0.089736802707
CC321D   HN3  1  0.267269615442  0.089736802707
CC321D   HN4  1  0.189271432669  0.089736802707
CC321D   HN5  1  0.189271432669  0.089736802707
CC321D   HN6  1  0.286869387241  0.062058748940
CC321D   HN7  1  0.286869387241  0.062058748940
CC321D   HN8  1  0.288651184677  0.070011711020
CC321D   HN9  1  0.288651184677  0.064818249282
CC321D   NN1  1  0.334087019303  0.187114168357
CC321D   NN2  1  0.334087019303  0.187114168357
CC321D  NN2B  1  0.334087019303  0.187114168357
CC321D  NN2G  1  0.334087019303  0.187114168357
CC321D  NN2U  1  0.334087019303  0.187114168357
CC321D   NN3  1  0.334087019303  0.187114168357
CC321D  NN3A  1  0.334087019303  0.187114168357
CC321D  NN3G  1  0.334087019303  0.187114168357
CC321D   NN4  1  0.334087019303  0.187114168357
CC321D   NN6  1  0.334087019303  0.187114168357
CC321D   ON1  1  0.320723538531  0.144938011577
CC321D  ON1C  1  0.320723538531  0.144938011577
CC321D   ON2  1  0.326959829558  0.163176000000
CC321D   ON3  1  0.320723538531  0.144938011577
CC321D   ON4  1  0.326959829558  0.163176000000
CC321D   ON5  1  0.326959829558  0.163176000000
CC321D   ON6  1  0.326959829558  0.163176000000
CC321D  ON6B  1  0.326959829558  0.163176000000
CC321D   CN1  1  0.338541512893  0.132309697301
CC321D  CN1T  1  0.338541512893  0.132309697301
CC321D   CN2  1  0.338541512893  0.132309697301
CC321D   CN3  1  0.338541512893  0.125520000000
CC321D  CN3T  1  0.338541512893  0.125520000000
CC321D   CN4  1  0.338541512893  0.114583559030
CC321D   CN5  1  0.338541512893  0.114583559030
CC321D  CN5G  1  0.338541512893  0.114583559030
CC321D   CN7  1  0.338541512893  0.041840000000
CC321D  CN7B  1  0.338541512893  0.041840000000
CC321D   CN8  1  0.338541512893  0.041840000000
CC321D  CN8B  1  0.338541512893  0.041840000000
CC321D   CN9  1  0.338541512893  0.041840000000
CC321D     P  1  0.360813980847  0.320014464673
CC321D    P2  1  0.360813980847  0.320014464673
CC321D    P3  1  0.360813980847  0.320014464673
CC321D    P4  1  0.360813980847  0.320014464673
CC321D   HOL  1  0.189271432669  0.089736802707
CC321D  HAL1  1  0.286869387241  0.062058748940
CC321D  HAL2  1  0.288651184677  0.070011711020
CC321D  HAL3  1  0.288651184677  0.064818249282
CC321D   HBL  1  0.286869387241  0.062058748940
CC321D   HCL  1  0.189271432669  0.089736802707
CC321D    HL  1  0.231633666716  0.089736802707
CC321D  HEL1  1  0.280633096214  0.073666921749
CC321D  HEL2  1  0.281523994932  0.067464972838
CC321D    CL  1  0.347450500075  0.110698234855
CC321D   CCL  1  0.347450500075  0.110698234855
CC321D  CTL1  1  0.338541512893  0.041840000000
CC321D  CTL2  1  0.338541512893  0.041840000000
CC321D  CTL3  1  0.338541512893  0.041840000000
CC321D  CTL5  1  0.338541512893  0.041840000000
CC321D  CEL1  1  0.355468588538  0.109105371453
CC321D  CEL2  1  0.354577689820  0.105847757841
CC321D  CRL1  1  0.338541512893  0.041840000000
CC321D  CRL2  1  0.338541512893  0.041840000000
CC321D   OBL  1  0.293996576986  0.144938011577
CC321D   OCL  1  0.320723538531  0.144938011577
CC321D   O2L  1  0.320723538531  0.144938011577
CC321D   OHL  1  0.326959829558  0.163176000000
CC321D   OSL  1  0.316269044940  0.132309697301
CC321D  OSLP  1  0.316269044940  0.132309697301
CC321D  NH3L  1  0.334087019303  0.187114168357
CC321D   NTL  1  0.334087019303  0.187114168357
CC321D    SL  1  0.356359487256  0.286840588481
CC321D    PL  1  0.360813980847  0.320014464673
CC321D HCA1A  1  0.288651184677  0.088756043175
CC321D HCA2A  1  0.288651184677  0.078275472531
CC321D HCA3A  1  0.288651184677  0.064818249282
CC321D CC30A  1  0.338541512893  0.041840000000
CC321D CC31A  1  0.338541512893  0.041840000000
CC321D CC32A  1  0.338541512893  0.041840000000
CC321D CC33A  1  0.338541512893  0.041840000000
CC321D CC326A  1  0.338541512893  0.041840000000
CC321D HCA25A  1  0.285087589805  0.078275472531
CC321D CC325A  1  0.338541512893  0.041840000000
CC321D CC325B  1  0.338541512893  0.041840000000
CC321D OC305A  1  0.316269044940  0.132309697301
CC321D OC30A  1  0.316269044940  0.132309697301
CC321D  HSIO  1  0.189271432669  0.089736802707
CC321D  HSIA  1  0.286869387241  0.062058748940
CC321D   HAL  1  0.286869387241  0.062058748940
CC321D    AL  1  0.365268474438  0.337324864189
CC321D    SI  1  0.365268474438  0.324091246411
CC321D  SIH3  1  0.365268474438  0.324091246411
CC321D  OSIH  1  0.326959829558  0.163176000000
CC321D  OSIE  1  0.326959829558  0.163176000000
CC321D  OSIA  1  0.326959829558  0.163176000000
CC321D   OAL  1  0.326959829558  0.163176000000
CC321D    HT  1  0.189271432669  0.089736802707
CC321D    OT  1  0.326799467788  0.163176000000
CC321D   DUM  1  0.169270756447  0.000000000000
CC321D    CM  1  0.356359487256  0.138767581228
CC321D   CPA  1  0.329632525712  0.125520000000
CC321D   CPB  1  0.329632525712  0.125520000000
CC321D   CPM  1  0.329632525712  0.125520000000
CC321D   CST  1  0.308518226092  0.100764063435
CC321D  CT1X  1  0.338541512893  0.041840000000
CC321D  CT2X  1  0.338541512893  0.041840000000
CC321D  CT3X  1  0.338541512893  0.041840000000
CC321D    HB  1  0.286869387241  0.062058748940
CC321D   NPH  1  0.334087019303  0.187114168357
CC321D    OM  1  0.320723538531  0.144938011577
CC321D   OST  1  0.320010819556  0.169954883425
CC321D   POT  1  0.326403017859  0.123410269913
CC321D   CAL  1  0.291056611216  0.144938011577
CC321D    MG  1  0.274842254546  0.051243325419
CC321D   CES  1  0.356359487256  0.182376331798
CC321D    ZN  1  0.266378716724  0.209200000000
CC321D    FE  1  0.227179173126  0.000000000000
CC321D    HE  1  0.301123766731  0.061020452073
CC321D    NE  1  0.305578260322  0.122698965603
CC321D  CLAL  1  0.339272049842  0.072469005789
CC321D    AG  1  0.300901042052  0.893457908130
CC321D    AU  1  0.300722862308  0.962320000000
CC321D    CU  1  0.285800308779  0.908997471504
CC321D    NI  1  0.282949432881  0.994525446633
CC321D    PB  1  0.328073452955  0.716185437439
CC321D    PD  1  0.294842930769  1.037598257516
CC321D    PT  1  0.296001099102  1.168527606863
CC321D   CAP  1  0.346773417049  0.110698234855
CC321D    FA  1  0.320723538531  0.144938011577
CC321D    CN  1  0.325178032121  0.187114168357
CC321D    NC  1  0.334087019303  0.324091246411
CC321D   OCA  1  0.293996576986  0.144938011577
CC321D   COA  1  0.347450500075  0.138767581228
CC321D   CF1  1  0.338541512893  0.102486650838
CC321D   CF2  1  0.351904993665  0.085746484010
CC321D   CF3  1  0.374177461619  0.059170695450
CC321D   HF1  1  0.286869387241  0.070011711020
CC321D   HF2  1  0.285087589805  0.072469005789
CC321D    F1  1  0.314487247504  0.153729976257
CC321D    F2  1  0.314487247504  0.135577095411
CC321D    F3  1  0.311814551349  0.130309939452
CC321D    OX  1  0.320723538531  0.144938011577
CC321D    HX  1  0.189271432669  0.089736802707
CC321D  HPER  1  0.189271432669  0.089736802707
CC321D  OPER  1  0.318427692534  0.188901923946
CC321D   LIT  1  0.284864865125  0.020196198771
CC321D   RUB  1  0.338541512893  0.162045623205
CC321D   BAR  1  0.337650614175  0.162045623205
CC321D   CAD  1  0.290165712498  0.144938011577
CC321D  ON2B  1  0.326959829558  0.163176000000
CC321D    SP  1  0.365268474438  0.280671252536
CC321D   HNP  1  0.290272620344  0.072469005789
CC321D  HNE1  1  0.280633096214  0.073666921749
CC321D  HNE2  1  0.281523994932  0.067464972838
CC321D  CN3D  1  0.338541512893  0.125520000000
CC321D  CNE1  1  0.355468588538  0.109105371453
CC321D  CNE2  1  0.354577689820  0.105847757841
CC321D   CNA  1  0.346773417049  0.110698234855
CC321D  CNA2  1  0.338541512893  0.110698234855
CC321D   CNG  1  0.347450500075  0.138767581228
CC321D  NN1C  1  0.334087019303  0.187114168357
CC321D  NN2C  1  0.334087019303  0.187114168357
CC321D  NN3I  1  0.334087019303  0.187114168357
CC321D   NNG  1  0.334087019303  0.187114168357
CC321D   FNA  1  0.320723538531  0.144938011577
CC321D  ON2M  1  0.316269044940  0.132309697301
CC321D   CN6  1  0.338541512893  0.041840000000
CC321D  CN7E  1  0.338541512893  0.041840000000
CC321D  CT2P  1  0.338541512893  0.041840000000
CC321D  CTD1  1  0.338541512893  0.041840000000
CC321D  CPD1  1  0.338541512893  0.041840000000
CC321D  CC1A  1  0.355468588538  0.109105371453
CC321D  CC1B  1  0.355468588538  0.109105371453
CC321D   CC2  1  0.354577689820  0.105847757841
CC321D   NS1  1  0.334087019303  0.187114168357
CC321D   NS2  1  0.334087019303  0.187114168357
CC321D   NHL  1  0.307360057758  0.187114168357
CC321D  CTO1  1  0.338541512893  0.041840000000
CC321D  CEL3  1  0.355468588538  0.109105371453
CC321D  CTO2  1  0.338541512893  0.041840000000
CC321D  HN3B  1  0.249451641079  0.089736802707
CC321D  CN1A  1  0.347450500075  0.110698234855
CC321D  CN3A  1  0.329632525712  0.177512086349
CC321D  CN3B  1  0.329632525712  0.177512086349
CC321D  CN3C  1  0.329632525712  0.177512086349
CC311C     C  1  0.347450500075  0.138767581228
CC311C    CA  1  0.346773417049  0.110698234855
CC311C    CC  1  0.347450500075  0.110698234855
CC311C    CD  1  0.347450500075  0.110698234855
CC311C   CE1  1  0.355468588538  0.109105371453
CC311C   CE2  1  0.354577689820  0.105847757841
CC311C   CP1  1  0.338541512893  0.041840000000
CC311C   CP2  1  0.338541512893  0.041840000000
CC311C   CP3  1  0.338541512893  0.041840000000
CC311C  CPH1  1  0.329632525712  0.093557084179
CC311C  CPH2  1  0.329632525712  0.093557084179
CC311C    CS  1  0.365268474438  0.138767581228
CC311C   CPT  1  0.334977918021  0.131646486622
CC311C    CY  1  0.346559601357  0.113045454929
CC311C   CAI  1  0.346559601357  0.113045454929
CC311C    CT  1  0.338541512893  0.041840000000
CC311C   CT1  1  0.338541512893  0.041840000000
CC311C   CT2  1  0.338541512893  0.041840000000
CC311C  CT2A  1  0.338541512893  0.041840000000
CC311C   CT3  1  0.338541512893  0.041840000000
CC311C    C3  1  0.371950214824  0.059170695450
CC311C     H  1  0.189271432669  0.089736802707
CC311C    HA  1  0.286869387241  0.062058748940
CC311C   HB1  1  0.286869387241  0.062058748940
CC311C   HB2  1  0.288651184677  0.070011711020
CC311C   HE1  1  0.280633096214  0.073666921749
CC311C   HE2  1  0.281523994932  0.067464972838
CC311C    HC  1  0.189271432669  0.089736802707
CC311C    HP  1  0.290272620344  0.072469005789
CC311C   HR1  1  0.249451641079  0.089736802707
CC311C   HR2  1  0.231633666716  0.089736802707
CC311C   HR3  1  0.300054688270  0.036952087465
CC311C    HS  1  0.209361198763  0.132309697301
CC311C   HA1  1  0.288651184677  0.088756043175
CC311C   HA2  1  0.288651184677  0.077149148019
CC311C   HA3  1  0.288651184677  0.064818249282
CC311C     N  1  0.334087019303  0.004184000000
CC311C   NC2  1  0.334087019303  0.187114168357
CC311C   NH1  1  0.307360057758  0.187114168357
CC311C   NH2  1  0.334087019303  0.187114168357
CC311C   NH3  1  0.334087019303  0.187114168357
CC311C    NP  1  0.334087019303  0.187114168357
CC311C   NR1  1  0.334087019303  0.187114168357
CC311C   NR2  1  0.334087019303  0.187114168357
CC311C   NR3  1  0.334087019303  0.187114168357
CC311C    NY  1  0.334087019303  0.187114168357
CC311C     O  1  0.293996576986  0.144938011577
CC311C    OB  1  0.293996576986  0.144938011577
CC311C    OC  1  0.320723538531  0.144938011577
CC311C   OH1  1  0.326959829558  0.163176000000
CC311C    OS  1  0.326959829558  0.163176000000
CC311C     S  1  0.347450500075  0.280671252536
CC311C    SM  1  0.345223253279  0.257919081884
CC311C    SS  1  0.365268474438  0.286840588481
CC311C  HGA1  1  0.288651184677  0.088756043175
CC311C  HGA2  1  0.288651184677  0.078275472531
CC311C  HGA3  1  0.288651184677  0.064818249282
CC311C  HGA4  1  0.280633096214  0.073666921749
CC311C  HGA5  1  0.281523994932  0.067464972838
CC311C  HGA6  1  0.286869387241  0.070011711020
CC311C  HGA7  1  0.285087589805  0.072469005789
CC311C HGAAM0  1  0.283305792369  0.070011711020
CC311C HGAAM1  1  0.283305792369  0.070011711020
CC311C HGAAM2  1  0.281523994932  0.083680000000
CC311C  HGP1  1  0.189271432669  0.089736802707
CC311C  HGP2  1  0.189271432669  0.089736802707
CC311C  HGP3  1  0.209361198763  0.132309697301
CC311C  HGP4  1  0.189271432669  0.089736802707
CC311C  HGP5  1  0.231633666716  0.089736802707
CC311C HGPAM1  1  0.247224394284  0.039692909190
CC311C HGPAM2  1  0.247224394284  0.041840000000
CC311C HGPAM3  1  0.246778944925  0.045833423612
CC311C HGR51  1  0.290272620344  0.072469005789
CC311C HGR52  1  0.249451641079  0.089736802707
CC311C HGR53  1  0.231633666716  0.089736802707
CC311C HGR61  1  0.290272620344  0.072469005789
CC311C HGR62  1  0.267269615442  0.089736802707
CC311C HGR63  1  0.249451641079  0.089736802707
CC311C HGR71  1  0.290272620344  0.072469005789
CC311C HGTIP3  1  0.189271432669  0.089736802707
CC311C CG1T1  1  0.333196120584  0.170981810495
CC311C CG1T2  1  0.346782326036  0.134409982486
CC311C CG1N1  1  0.335868816739  0.177512086349
CC311C CG2D1  1  0.355468588538  0.109105371453
CC311C CG2D2  1  0.354577689820  0.105847757841
CC311C CG2D1O  1  0.355468588538  0.109105371453
CC311C CG2D2O  1  0.355468588538  0.109105371453
CC311C CG2DC1  1  0.355468588538  0.109105371453
CC311C CG2DC2  1  0.355468588538  0.109105371453
CC311C CG2DC3  1  0.354577689820  0.105847757841
CC311C CG2N1  1  0.347450500075  0.138767581228
CC311C CG2N2  1  0.347450500075  0.138767581228
CC311C CG2O1  1  0.347450500075  0.138767581228
CC311C CG2O2  1  0.320723538531  0.130979917850
CC311C CG2O3  1  0.347450500075  0.110698234855
CC311C CG2O4  1  0.329632525712  0.102486650838
CC311C CG2O5  1  0.347450500075  0.125520000000
CC311C CG2O6  1  0.347450500075  0.110698234855
CC311C CG2O7  1  0.308518226092  0.100764063435
CC311C CG2R51  1  0.356359487256  0.093557084179
CC311C CG2R52  1  0.365268474438  0.059170695450
CC311C CG2R53  1  0.365268474438  0.059170695450
CC311C CG2R57  1  0.356359487256  0.093557084179
CC311C CG25C1  1  0.355468588538  0.109105371453
CC311C CG25C2  1  0.355468588538  0.109105371453
CC311C CG251O  1  0.355468588538  0.109105371453
CC311C CG252O  1  0.355468588538  0.109105371453
CC311C CG2R61  1  0.346773417049  0.110698234855
CC311C CG2R62  1  0.338541512893  0.125520000000
CC311C CG2R63  1  0.338541512893  0.132309697301
CC311C CG2R64  1  0.356359487256  0.083680000000
CC311C CG2R66  1  0.338541512893  0.110698234855
CC311C CG2R67  1  0.346773417049  0.110698234855
CC311C CG2RC0  1  0.334977918021  0.131646486622
CC311C CG2R71  1  0.346987232741  0.108300154755
CC311C CG2RC7  1  0.334977918021  0.131646486622
CC311C CG301  1  0.338541512893  0.041840000000
CC311C CG302  1  0.374177461619  0.059170695450
CC311C CG311  1  0.338541512893  0.041840000000
CC311C CG312  1  0.351904993665  0.085746484010
CC311C CG314  1  0.338541512893  0.041840000000
CC311C CG321  1  0.338541512893  0.041840000000
CC311C CG322  1  0.338541512893  0.102486650838
CC311C CG323  1  0.365268474438  0.138767581228
CC311C CG324  1  0.338541512893  0.041840000000
CC311C CG331  1  0.338541512893  0.041840000000
CC311C CG334  1  0.338541512893  0.041840000000
CC311C CG3C50  1  0.338541512893  0.041840000000
CC311C CG3C51  1  0.338541512893  0.041840000000
CC311C CG3C52  1  0.338541512893  0.041840000000
CC311C CG3C53  1  0.338541512893  0.041840000000
CC311C CG3C54  1  0.338541512893  0.041840000000
CC311C CG3C31  1  0.338541512893  0.041840000000
CC311C CG3C41  1  0.338541512893  0.041840000000
CC311C CG3RC1  1  0.338541512893  0.041840000000
CC311C CG3AM0  1  0.344777803920  0.110698234855
CC311C CG3AM1  1  0.345668702638  0.116852760686
CC311C CG3AM2  1  0.346559601357  0.118341390899
CC311C NG1T1  1  0.328741626994  0.177512086349
CC311C NG2D1  1  0.334087019303  0.187114168357
CC311C NG2S0  1  0.334087019303  0.004184000000
CC311C NG2S1  1  0.307360057758  0.187114168357
CC311C NG2S2  1  0.334087019303  0.187114168357
CC311C NG2S3  1  0.334087019303  0.187114168357
CC311C NG2O1  1  0.334087019303  0.187114168357
CC311C NG2P1  1  0.334087019303  0.187114168357
CC311C NG2R43  1  0.334087019303  0.187114168357
CC311C NG2R50  1  0.334087019303  0.187114168357
CC311C NG2R51  1  0.334087019303  0.187114168357
CC311C NG2R52  1  0.334087019303  0.187114168357
CC311C NG2R53  1  0.334087019303  0.187114168357
CC311C NG2R57  1  0.334087019303  0.187114168357
CC311C NG2R60  1  0.337650614175  0.102486650838
CC311C NG2R61  1  0.334087019303  0.187114168357
CC311C NG2R62  1  0.352795892384  0.093557084179
CC311C NG2R67  1  0.334087019303  0.187114168357
CC311C NG2RC0  1  0.334087019303  0.187114168357
CC311C NG301  1  0.347450500075  0.078275472531
CC311C NG311  1  0.347450500075  0.088756043175
CC311C NG321  1  0.346559601357  0.102486650838
CC311C NG331  1  0.345668702638  0.110698234855
CC311C NG3C51  1  0.334087019303  0.187114168357
CC311C NG3N1  1  0.351904993665  0.102486650838
CC311C NG3P0  1  0.334087019303  0.187114168357
CC311C NG3P1  1  0.334087019303  0.187114168357
CC311C NG3P2  1  0.334087019303  0.187114168357
CC311C NG3P3  1  0.334087019303  0.187114168357
CC311C OG2D1  1  0.293996576986  0.144938011577
CC311C OG2D2  1  0.320723538531  0.144938011577
CC311C OG2D3  1  0.293996576986  0.144938011577
CC311C OG2D4  1  0.320723538531  0.144938011577
CC311C OG2D5  1  0.320010819556  0.169954883425
CC311C OG2N1  1  0.320723538531  0.144938011577
CC311C OG2P1  1  0.320723538531  0.144938011577
CC311C OG2R50  1  0.320723538531  0.144938011577
CC311C OG3R60  1  0.316269044940  0.132309697301
CC311C OG301  1  0.316269044940  0.132309697301
CC311C OG302  1  0.316269044940  0.132309697301
CC311C OG303  1  0.316269044940  0.132309697301
CC311C OG304  1  0.316269044940  0.132309697301
CC311C OG311  1  0.326514380198  0.183381431383
CC311C OG312  1  0.325178032121  0.144938011577
CC311C OG3C31  1  0.316269044940  0.132309697301
CC311C OG3C51  1  0.316269044940  0.132309697301
CC311C OG3C61  1  0.316269044940  0.132309697301
CC311C OGTIP3  1  0.326799467788  0.163176000000
CC311C SG2D1  1  0.351904993665  0.314496560236
CC311C SG2R50  1  0.347450500075  0.280671252536
CC311C SG311  1  0.347450500075  0.280671252536
CC311C SG301  1  0.345223253279  0.257919081884
CC311C SG302  1  0.365268474438  0.286840588481
CC311C SG3O1  1  0.356359487256  0.286840588481
CC311C SG3O2  1  0.347450500075  0.247528778125
CC311C SG3O3  1  0.347450500075  0.247528778125
CC311C  FGA1  1  0.314487247504  0.153729976257
CC311C  FGA2  1  0.314487247504  0.135577095411
CC311C  FGA3  1  0.311814551349  0.130309939452
CC311C  FGP1  1  0.311814551349  0.130309939452
CC311C  FGR1  1  0.320723538531  0.144938011577
CC311C CLGA1  1  0.339432411611  0.245040988571
CC311C CLGA3  1  0.339432411611  0.232955260941
CC311C BRGA1  1  0.344777803920  0.289876023155
CC311C BRGA2  1  0.351904993665  0.304599797767
CC311C BRGA3  1  0.347450500075  0.307459952514
CC311C   SOD  1  0.294954293108  0.090610410351
CC311C   CLA  1  0.371504765465  0.162045623205
CC311C   PG0  1  0.360813980847  0.320014464673
CC311C   PG1  1  0.360813980847  0.320014464673
CC311C   PG2  1  0.360813980847  0.320014464673
CC311C  ALG1  1  0.347450500075  0.337324864189
CC311C   LPH  1  0.169270756447  0.000000000000
CC311C CLGR1  1  0.334977918021  0.200657590935
CC311C BRGR1  1  0.345668702638  0.236682781799
CC311C  IGR1  1  0.368832069310  0.301712530731
CC311C SG2P1  1  0.355798221064  0.332305491450
CC311C OG2S1  1  0.318906105146  0.157831660601
CC311C SG2P2  1  0.352314807076  0.329421919951
CC311C SEGD1  1  0.363041227642  0.330244580395
CC311C BG201  1  0.396449929572  0.081561175077
CC311C CC301  1  0.338541512893  0.041840000000
CC311C CC3062  1  0.338541512893  0.041840000000
CC311C CC311  1  0.338541512893  0.041840000000
CC311C CC3161  1  0.338541512893  0.041840000000
CC311C CC3162  1  0.338541512893  0.041840000000
CC311C CC3163  1  0.338541512893  0.041840000000
CC311C CC321  1  0.338541512893  0.041840000000
CC311C CC3261  1  0.338541512893  0.041840000000
CC311C CC3263  1  0.338541512893  0.041840000000
CC311C CC331  1  0.338541512893  0.041840000000
CC311C CC2O1  1  0.347450500075  0.138767581228
CC311C CC2O2  1  0.347450500075  0.110698234855
CC311C CC2O3  1  0.347450500075  0.125520000000
CC311C CC2O4  1  0.329632525712  0.102486650838
CC311C CC2O5  1  0.320723538531  0.130979917850
CC311C OC2D1  1  0.293996576986  0.144938011577
CC311C OC2D2  1  0.320723538531  0.144938011577
CC311C OC2D3  1  0.293996576986  0.144938011577
CC311C OC2D4  1  0.293996576986  0.144938011577
CC311C OC3C61  1  0.316269044940  0.132309697301
CC311C OC311  1  0.326514380198  0.183381431383
CC311C NC2D1  1  0.307360057758  0.187114168357
CC311C  HCP1  1  0.189271432669  0.089736802707
CC311C  HCA1  1  0.288651184677  0.088756043175
CC311C  HCA2  1  0.288651184677  0.078275472531
CC311C  HCA3  1  0.288651184677  0.064818249282
CC311C CC312  1  0.338541512893  0.041840000000
CC311C CC322  1  0.338541512893  0.041840000000
CC311C  HCR1  1  0.240542653898  0.089736802707
CC311C HCA3M  1  0.288651184677  0.064818249282
CC311C CC321C  1  0.338541512893  0.041840000000
CC311C CC321D  1  0.338541512893  0.041840000000
CC311C CC311C  1  0.338541512893  0.041840000000
CC311C CC311D  1  0.338541512893  0.041840000000
CC311C OC301  1  0.316269044940  0.132309697301
CC311C OC302  1  0.316269044940  0.132309697301
CC311C HCP1M  1  0.189271432669  0.089736802707
CC311C OC311M  1  0.326514380198  0.183381431383
CC311C OC3C5M  1  0.316269044940  0.132309697301
CC311C CC322C  1  0.338541512893  0.041840000000
CC311C HCA2C2  1  0.285087589805  0.078275472531
CC311C CC312C  1  0.338541512893  0.041840000000
CC311C HCA1C2  1  0.288651184677  0.088756043175
CC311C OC3C51  1  0.316269044940  0.132309697301
CC311C CC3152  1  0.338541512893  0.041840000000
CC311C CC3051  1  0.338541512893  0.041840000000
CC311C CC3251  1  0.338541512893  0.041840000000
CC311C CC3151  1  0.338541512893  0.041840000000
CC311C CC3153  1  0.338541512893  0.041840000000
CC311C OC2DP  1  0.320723538531  0.144938011577
CC311C OC312  1  0.326959829558  0.163176000000
CC311C OC30P  1  0.326959829558  0.163176000000
CC311C    PC  1  0.360813980847  0.320014464673
CC311C    SC  1  0.356359487256  0.286840588481
CC311C CC312D  1  0.338541512893  0.041840000000
CC311C OC303  1  0.316269044940  0.132309697301
CC311C NC311  1  0.347450500075  0.088756043175
CC311C   HN1  1  0.189271432669  0.089736802707
CC311C   HN2  1  0.189271432669  0.089736802707
CC311C   HN3  1  0.267269615442  0.089736802707
CC311C   HN4  1  0.189271432669  0.089736802707
CC311C   HN5  1  0.189271432669  0.089736802707
CC311C   HN6  1  0.286869387241  0.062058748940
CC311C   HN7  1  0.286869387241  0.062058748940
CC311C   HN8  1  0.288651184677  0.070011711020
CC311C   HN9  1  0.288651184677  0.064818249282
CC311C   NN1  1  0.334087019303  0.187114168357
CC311C   NN2  1  0.334087019303  0.187114168357
CC311C  NN2B  1  0.334087019303  0.187114168357
CC311C  NN2G  1  0.334087019303  0.187114168357
CC311C  NN2U  1  0.334087019303  0.187114168357
CC311C   NN3  1  0.334087019303  0.187114168357
CC311C  NN3A  1  0.334087019303  0.187114168357
CC311C  NN3G  1  0.334087019303  0.187114168357
CC311C   NN4  1  0.334087019303  0.187114168357
CC311C   NN6  1  0.334087019303  0.187114168357
CC311C   ON1  1  0.320723538531  0.144938011577
CC311C  ON1C  1  0.320723538531  0.144938011577
CC311C   ON2  1  0.326959829558  0.163176000000
CC311C   ON3  1  0.320723538531  0.144938011577
CC311C   ON4  1  0.326959829558  0.163176000000
CC311C   ON5  1  0.326959829558  0.163176000000
CC311C   ON6  1  0.326959829558  0.163176000000
CC311C  ON6B  1  0.326959829558  0.163176000000
CC311C   CN1  1  0.338541512893  0.132309697301
CC311C  CN1T  1  0.338541512893  0.132309697301
CC311C   CN2  1  0.338541512893  0.132309697301
CC311C   CN3  1  0.338541512893  0.125520000000
CC311C  CN3T  1  0.338541512893  0.125520000000
CC311C   CN4  1  0.338541512893  0.114583559030
CC311C   CN5  1  0.338541512893  0.114583559030
CC311C  CN5G  1  0.338541512893  0.114583559030
CC311C   CN7  1  0.338541512893  0.041840000000
CC311C  CN7B  1  0.338541512893  0.041840000000
CC311C   CN8  1  0.338541512893  0.041840000000
CC311C  CN8B  1  0.338541512893  0.041840000000
CC311C   CN9  1  0.338541512893  0.041840000000
CC311C     P  1  0.360813980847  0.320014464673
CC311C    P2  1  0.360813980847  0.320014464673
CC311C    P3  1  0.360813980847  0.320014464673
CC311C    P4  1  0.360813980847  0.320014464673
CC311C   HOL  1  0.189271432669  0.089736802707
CC311C  HAL1  1  0.286869387241  0.062058748940
CC311C  HAL2  1  0.288651184677  0.070011711020
CC311C  HAL3  1  0.288651184677  0.064818249282
CC311C   HBL  1  0.286869387241  0.062058748940
CC311C   HCL  1  0.189271432669  0.089736802707
CC311C    HL  1  0.231633666716  0.089736802707
CC311C  HEL1  1  0.280633096214  0.073666921749
CC311C  HEL2  1  0.281523994932  0.067464972838
CC311C    CL  1  0.347450500075  0.110698234855
CC311C   CCL  1  0.347450500075  0.110698234855
CC311C  CTL1  1  0.338541512893  0.041840000000
CC311C  CTL2  1  0.338541512893  0.041840000000
CC311C  CTL3  1  0.338541512893  0.041840000000
CC311C  CTL5  1  0.338541512893  0.041840000000
CC311C  CEL1  1  0.355468588538  0.109105371453
CC311C  CEL2  1  0.354577689820  0.105847757841
CC311C  CRL1  1  0.338541512893  0.041840000000
CC311C  CRL2  1  0.338541512893  0.041840000000
CC311C   OBL  1  0.293996576986  0.144938011577
CC311C   OCL  1  0.320723538531  0.144938011577
CC311C   O2L  1  0.320723538531  0.144938011577
CC311C   OHL  1  0.326959829558  0.163176000000
CC311C   OSL  1  0.316269044940  0.132309697301
CC311C  OSLP  1  0.316269044940  0.132309697301
CC311C  NH3L  1  0.334087019303  0.187114168357
CC311C   NTL  1  0.334087019303  0.187114168357
CC311C    SL  1  0.356359487256  0.286840588481
CC311C    PL  1  0.360813980847  0.320014464673
CC311C HCA1A  1  0.288651184677  0.088756043175
CC311C HCA2A  1  0.288651184677  0.078275472531
CC311C HCA3A  1  0.288651184677  0.064818249282
CC311C CC30A  1  0.338541512893  0.041840000000
CC311C CC31A  1  0.338541512893  0.041840000000
CC311C CC32A  1  0.338541512893  0.041840000000
CC311C CC33A  1  0.338541512893  0.041840000000
CC311C CC326A  1  0.338541512893  0.041840000000
CC311C HCA25A  1  0.285087589805  0.078275472531
CC311C CC325A  1  0.338541512893  0.041840000000
CC311C CC325B  1  0.338541512893  0.041840000000
CC311C OC305A  1  0.316269044940  0.132309697301
CC311C OC30A  1  0.316269044940  0.132309697301
CC311C  HSIO  1  0.189271432669  0.089736802707
CC311C  HSIA  1  0.286869387241  0.062058748940
CC311C   HAL  1  0.286869387241  0.062058748940
CC311C    AL  1  0.365268474438  0.337324864189
CC311C    SI  1  0.365268474438  0.324091246411
CC311C  SIH3  1  0.365268474438  0.324091246411
CC311C  OSIH  1  0.326959829558  0.163176000000
CC311C  OSIE  1  0.326959829558  0.163176000000
CC311C  OSIA  1  0.326959829558  0.163176000000
CC311C   OAL  1  0.326959829558  0.163176000000
CC311C    HT  1  0.189271432669  0.089736802707
CC311C    OT  1  0.326799467788  0.163176000000
CC311C   DUM  1  0.169270756447  0.000000000000
CC311C    CM  1  0.356359487256  0.138767581228
CC311C   CPA  1  0.329632525712  0.125520000000
CC311C   CPB  1  0.329632525712  0.125520000000
CC311C   CPM  1  0.329632525712  0.125520000000
CC311C   CST  1  0.308518226092  0.100764063435
CC311C  CT1X  1  0.338541512893  0.041840000000
CC311C  CT2X  1  0.338541512893  0.041840000000
CC311C  CT3X  1  0.338541512893  0.041840000000
CC311C    HB  1  0.286869387241  0.062058748940
CC311C   NPH  1  0.334087019303  0.187114168357
CC311C    OM  1  0.320723538531  0.144938011577
CC311C   OST  1  0.320010819556  0.169954883425
CC311C   POT  1  0.326403017859  0.123410269913
CC311C   CAL  1  0.291056611216  0.144938011577
CC311C    MG  1  0.274842254546  0.051243325419
CC311C   CES  1  0.356359487256  0.182376331798
CC311C    ZN  1  0.266378716724  0.209200000000
CC311C    FE  1  0.227179173126  0.000000000000
CC311C    HE  1  0.301123766731  0.061020452073
CC311C    NE  1  0.305578260322  0.122698965603
CC311C  CLAL  1  0.339272049842  0.072469005789
CC311C    AG  1  0.300901042052  0.893457908130
CC311C    AU  1  0.300722862308  0.962320000000
CC311C    CU  1  0.285800308779  0.908997471504
CC311C    NI  1  0.282949432881  0.994525446633
CC311C    PB  1  0.328073452955  0.716185437439
CC311C    PD  1  0.294842930769  1.037598257516
CC311C    PT  1  0.296001099102  1.168527606863
CC311C   CAP  1  0.346773417049  0.110698234855
CC311C    FA  1  0.320723538531  0.144938011577
CC311C    CN  1  0.325178032121  0.187114168357
CC311C    NC  1  0.334087019303  0.324091246411
CC311C   OCA  1  0.293996576986  0.144938011577
CC311C   COA  1  0.347450500075  0.138767581228
CC311C   CF1  1  0.338541512893  0.102486650838
CC311C   CF2  1  0.351904993665  0.085746484010
CC311C   CF3  1  0.374177461619  0.059170695450
CC311C   HF1  1  0.286869387241  0.070011711020
CC311C   HF2  1  0.285087589805  0.072469005789
CC311C    F1  1  0.314487247504  0.153729976257
CC311C    F2  1  0.314487247504  0.135577095411
CC311C    F3  1  0.311814551349  0.130309939452
CC311C    OX  1  0.320723538531  0.144938011577
CC311C    HX  1  0.189271432669  0.089736802707
CC311C  HPER  1  0.189271432669  0.089736802707
CC311C  OPER  1  0.318427692534  0.188901923946
CC311C   LIT  1  0.284864865125  0.020196198771
CC311C   RUB  1  0.338541512893  0.162045623205
CC311C   BAR  1  0.337650614175  0.162045623205
CC311C   CAD  1  0.290165712498  0.144938011577
CC311C  ON2B  1  0.326959829558  0.163176000000
CC311C    SP  1  0.365268474438  0.280671252536
CC311C   HNP  1  0.290272620344  0.072469005789
CC311C  HNE1  1  0.280633096214  0.073666921749
CC311C  HNE2  1  0.281523994932  0.067464972838
CC311C  CN3D  1  0.338541512893  0.125520000000
CC311C  CNE1  1  0.355468588538  0.109105371453
CC311C  CNE2  1  0.354577689820  0.105847757841
CC311C   CNA  1  0.346773417049  0.110698234855
CC311C  CNA2  1  0.338541512893  0.110698234855
CC311C   CNG  1  0.347450500075  0.138767581228
CC311C  NN1C  1  0.334087019303  0.187114168357
CC311C  NN2C  1  0.334087019303  0.187114168357
CC311C  NN3I  1  0.334087019303  0.187114168357
CC311C   NNG  1  0.334087019303  0.187114168357
CC311C   FNA  1  0.320723538531  0.144938011577
CC311C  ON2M  1  0.316269044940  0.132309697301
CC311C   CN6  1  0.338541512893  0.041840000000
CC311C  CN7E  1  0.338541512893  0.041840000000
CC311C  CT2P  1  0.338541512893  0.041840000000
CC311C  CTD1  1  0.338541512893  0.041840000000
CC311C  CPD1  1  0.338541512893  0.041840000000
CC311C  CC1A  1  0.355468588538  0.109105371453
CC311C  CC1B  1  0.355468588538  0.109105371453
CC311C   CC2  1  0.354577689820  0.105847757841
CC311C   NS1  1  0.334087019303  0.187114168357
CC311C   NS2  1  0.334087019303  0.187114168357
CC311C   NHL  1  0.307360057758  0.187114168357
CC311C  CTO1  1  0.338541512893  0.041840000000
CC311C  CEL3  1  0.355468588538  0.109105371453
CC311C  CTO2  1  0.338541512893  0.041840000000
CC311C  HN3B  1  0.249451641079  0.089736802707
CC311C  CN1A  1  0.347450500075  0.110698234855
CC311C  CN3A  1  0.329632525712  0.177512086349
CC311C  CN3B  1  0.329632525712  0.177512086349
CC311C  CN3C  1  0.329632525712  0.177512086349
CC311D     C  1  0.347450500075  0.138767581228
CC311D    CA  1  0.346773417049  0.110698234855
CC311D    CC  1  0.347450500075  0.110698234855
CC311D    CD  1  0.347450500075  0.110698234855
CC311D   CE1  1  0.355468588538  0.109105371453
CC311D   CE2  1  0.354577689820  0.105847757841
CC311D   CP1  1  0.338541512893  0.041840000000
CC311D   CP2  1  0.338541512893  0.041840000000
CC311D   CP3  1  0.338541512893  0.041840000000
CC311D  CPH1  1  0.329632525712  0.093557084179
CC311D  CPH2  1  0.329632525712  0.093557084179
CC311D    CS  1  0.365268474438  0.138767581228
CC311D   CPT  1  0.334977918021  0.131646486622
CC311D    CY  1  0.346559601357  0.113045454929
CC311D   CAI  1  0.346559601357  0.113045454929
CC311D    CT  1  0.338541512893  0.041840000000
CC311D   CT1  1  0.338541512893  0.041840000000
CC311D   CT2  1  0.338541512893  0.041840000000
CC311D  CT2A  1  0.338541512893  0.041840000000
CC311D   CT3  1  0.338541512893  0.041840000000
CC311D    C3  1  0.371950214824  0.059170695450
CC311D     H  1  0.189271432669  0.089736802707
CC311D    HA  1  0.286869387241  0.062058748940
CC311D   HB1  1  0.286869387241  0.062058748940
CC311D   HB2  1  0.288651184677  0.070011711020
CC311D   HE1  1  0.280633096214  0.073666921749
CC311D   HE2  1  0.281523994932  0.067464972838
CC311D    HC  1  0.189271432669  0.089736802707
CC311D    HP  1  0.290272620344  0.072469005789
CC311D   HR1  1  0.249451641079  0.089736802707
CC311D   HR2  1  0.231633666716  0.089736802707
CC311D   HR3  1  0.300054688270  0.036952087465
CC311D    HS  1  0.209361198763  0.132309697301
CC311D   HA1  1  0.288651184677  0.088756043175
CC311D   HA2  1  0.288651184677  0.077149148019
CC311D   HA3  1  0.288651184677  0.064818249282
CC311D     N  1  0.334087019303  0.004184000000
CC311D   NC2  1  0.334087019303  0.187114168357
CC311D   NH1  1  0.307360057758  0.187114168357
CC311D   NH2  1  0.334087019303  0.187114168357
CC311D   NH3  1  0.334087019303  0.187114168357
CC311D    NP  1  0.334087019303  0.187114168357
CC311D   NR1  1  0.334087019303  0.187114168357
CC311D   NR2  1  0.334087019303  0.187114168357
CC311D   NR3  1  0.334087019303  0.187114168357
CC311D    NY  1  0.334087019303  0.187114168357
CC311D     O  1  0.293996576986  0.144938011577
CC311D    OB  1  0.293996576986  0.144938011577
CC311D    OC  1  0.320723538531  0.144938011577
CC311D   OH1  1  0.326959829558  0.163176000000
CC311D    OS  1  0.326959829558  0.163176000000
CC311D     S  1  0.347450500075  0.280671252536
CC311D    SM  1  0.345223253279  0.257919081884
CC311D    SS  1  0.365268474438  0.286840588481
CC311D  HGA1  1  0.288651184677  0.088756043175
CC311D  HGA2  1  0.288651184677  0.078275472531
CC311D  HGA3  1  0.288651184677  0.064818249282
CC311D  HGA4  1  0.280633096214  0.073666921749
CC311D  HGA5  1  0.281523994932  0.067464972838
CC311D  HGA6  1  0.286869387241  0.070011711020
CC311D  HGA7  1  0.285087589805  0.072469005789
CC311D HGAAM0  1  0.283305792369  0.070011711020
CC311D HGAAM1  1  0.283305792369  0.070011711020
CC311D HGAAM2  1  0.281523994932  0.083680000000
CC311D  HGP1  1  0.189271432669  0.089736802707
CC311D  HGP2  1  0.189271432669  0.089736802707
CC311D  HGP3  1  0.209361198763  0.132309697301
CC311D  HGP4  1  0.189271432669  0.089736802707
CC311D  HGP5  1  0.231633666716  0.089736802707
CC311D HGPAM1  1  0.247224394284  0.039692909190
CC311D HGPAM2  1  0.247224394284  0.041840000000
CC311D HGPAM3  1  0.246778944925  0.045833423612
CC311D HGR51  1  0.290272620344  0.072469005789
CC311D HGR52  1  0.249451641079  0.089736802707
CC311D HGR53  1  0.231633666716  0.089736802707
CC311D HGR61  1  0.290272620344  0.072469005789
CC311D HGR62  1  0.267269615442  0.089736802707
CC311D HGR63  1  0.249451641079  0.089736802707
CC311D HGR71  1  0.290272620344  0.072469005789
CC311D HGTIP3  1  0.189271432669  0.089736802707
CC311D CG1T1  1  0.333196120584  0.170981810495
CC311D CG1T2  1  0.346782326036  0.134409982486
CC311D CG1N1  1  0.335868816739  0.177512086349
CC311D CG2D1  1  0.355468588538  0.109105371453
CC311D CG2D2  1  0.354577689820  0.105847757841
CC311D CG2D1O  1  0.355468588538  0.109105371453
CC311D CG2D2O  1  0.355468588538  0.109105371453
CC311D CG2DC1  1  0.355468588538  0.109105371453
CC311D CG2DC2  1  0.355468588538  0.109105371453
CC311D CG2DC3  1  0.354577689820  0.105847757841
CC311D CG2N1  1  0.347450500075  0.138767581228
CC311D CG2N2  1  0.347450500075  0.138767581228
CC311D CG2O1  1  0.347450500075  0.138767581228
CC311D CG2O2  1  0.320723538531  0.130979917850
CC311D CG2O3  1  0.347450500075  0.110698234855
CC311D CG2O4  1  0.329632525712  0.102486650838
CC311D CG2O5  1  0.347450500075  0.125520000000
CC311D CG2O6  1  0.347450500075  0.110698234855
CC311D CG2O7  1  0.308518226092  0.100764063435
CC311D CG2R51  1  0.356359487256  0.093557084179
CC311D CG2R52  1  0.365268474438  0.059170695450
CC311D CG2R53  1  0.365268474438  0.059170695450
CC311D CG2R57  1  0.356359487256  0.093557084179
CC311D CG25C1  1  0.355468588538  0.109105371453
CC311D CG25C2  1  0.355468588538  0.109105371453
CC311D CG251O  1  0.355468588538  0.109105371453
CC311D CG252O  1  0.355468588538  0.109105371453
CC311D CG2R61  1  0.346773417049  0.110698234855
CC311D CG2R62  1  0.338541512893  0.125520000000
CC311D CG2R63  1  0.338541512893  0.132309697301
CC311D CG2R64  1  0.356359487256  0.083680000000
CC311D CG2R66  1  0.338541512893  0.110698234855
CC311D CG2R67  1  0.346773417049  0.110698234855
CC311D CG2RC0  1  0.334977918021  0.131646486622
CC311D CG2R71  1  0.346987232741  0.108300154755
CC311D CG2RC7  1  0.334977918021  0.131646486622
CC311D CG301  1  0.338541512893  0.041840000000
CC311D CG302  1  0.374177461619  0.059170695450
CC311D CG311  1  0.338541512893  0.041840000000
CC311D CG312  1  0.351904993665  0.085746484010
CC311D CG314  1  0.338541512893  0.041840000000
CC311D CG321  1  0.338541512893  0.041840000000
CC311D CG322  1  0.338541512893  0.102486650838
CC311D CG323  1  0.365268474438  0.138767581228
CC311D CG324  1  0.338541512893  0.041840000000
CC311D CG331  1  0.338541512893  0.041840000000
CC311D CG334  1  0.338541512893  0.041840000000
CC311D CG3C50  1  0.338541512893  0.041840000000
CC311D CG3C51  1  0.338541512893  0.041840000000
CC311D CG3C52  1  0.338541512893  0.041840000000
CC311D CG3C53  1  0.338541512893  0.041840000000
CC311D CG3C54  1  0.338541512893  0.041840000000
CC311D CG3C31  1  0.338541512893  0.041840000000
CC311D CG3C41  1  0.338541512893  0.041840000000
CC311D CG3RC1  1  0.338541512893  0.041840000000
CC311D CG3AM0  1  0.344777803920  0.110698234855
CC311D CG3AM1  1  0.345668702638  0.116852760686
CC311D CG3AM2  1  0.346559601357  0.118341390899
CC311D NG1T1  1  0.328741626994  0.177512086349
CC311D NG2D1  1  0.334087019303  0.187114168357
CC311D NG2S0  1  0.334087019303  0.004184000000
CC311D NG2S1  1  0.307360057758  0.187114168357
CC311D NG2S2  1  0.334087019303  0.187114168357
CC311D NG2S3  1  0.334087019303  0.187114168357
CC311D NG2O1  1  0.334087019303  0.187114168357
CC311D NG2P1  1  0.334087019303  0.187114168357
CC311D NG2R43  1  0.334087019303  0.187114168357
CC311D NG2R50  1  0.334087019303  0.187114168357
CC311D NG2R51  1  0.334087019303  0.187114168357
CC311D NG2R52  1  0.334087019303  0.187114168357
CC311D NG2R53  1  0.334087019303  0.187114168357
CC311D NG2R57  1  0.334087019303  0.187114168357
CC311D NG2R60  1  0.337650614175  0.102486650838
CC311D NG2R61  1  0.334087019303  0.187114168357
CC311D NG2R62  1  0.352795892384  0.093557084179
CC311D NG2R67  1  0.334087019303  0.187114168357
CC311D NG2RC0  1  0.334087019303  0.187114168357
CC311D NG301  1  0.347450500075  0.078275472531
CC311D NG311  1  0.347450500075  0.088756043175
CC311D NG321  1  0.346559601357  0.102486650838
CC311D NG331  1  0.345668702638  0.110698234855
CC311D NG3C51  1  0.334087019303  0.187114168357
CC311D NG3N1  1  0.351904993665  0.102486650838
CC311D NG3P0  1  0.334087019303  0.187114168357
CC311D NG3P1  1  0.334087019303  0.187114168357
CC311D NG3P2  1  0.334087019303  0.187114168357
CC311D NG3P3  1  0.334087019303  0.187114168357
CC311D OG2D1  1  0.293996576986  0.144938011577
CC311D OG2D2  1  0.320723538531  0.144938011577
CC311D OG2D3  1  0.293996576986  0.144938011577
CC311D OG2D4  1  0.320723538531  0.144938011577
CC311D OG2D5  1  0.320010819556  0.169954883425
CC311D OG2N1  1  0.320723538531  0.144938011577
CC311D OG2P1  1  0.320723538531  0.144938011577
CC311D OG2R50  1  0.320723538531  0.144938011577
CC311D OG3R60  1  0.316269044940  0.132309697301
CC311D OG301  1  0.316269044940  0.132309697301
CC311D OG302  1  0.316269044940  0.132309697301
CC311D OG303  1  0.316269044940  0.132309697301
CC311D OG304  1  0.316269044940  0.132309697301
CC311D OG311  1  0.326514380198  0.183381431383
CC311D OG312  1  0.325178032121  0.144938011577
CC311D OG3C31  1  0.316269044940  0.132309697301
CC311D OG3C51  1  0.316269044940  0.132309697301
CC311D OG3C61  1  0.316269044940  0.132309697301
CC311D OGTIP3  1  0.326799467788  0.163176000000
CC311D SG2D1  1  0.351904993665  0.314496560236
CC311D SG2R50  1  0.347450500075  0.280671252536
CC311D SG311  1  0.347450500075  0.280671252536
CC311D SG301  1  0.345223253279  0.257919081884
CC311D SG302  1  0.365268474438  0.286840588481
CC311D SG3O1  1  0.356359487256  0.286840588481
CC311D SG3O2  1  0.347450500075  0.247528778125
CC311D SG3O3  1  0.347450500075  0.247528778125
CC311D  FGA1  1  0.314487247504  0.153729976257
CC311D  FGA2  1  0.314487247504  0.135577095411
CC311D  FGA3  1  0.311814551349  0.130309939452
CC311D  FGP1  1  0.311814551349  0.130309939452
CC311D  FGR1  1  0.320723538531  0.144938011577
CC311D CLGA1  1  0.339432411611  0.245040988571
CC311D CLGA3  1  0.339432411611  0.232955260941
CC311D BRGA1  1  0.344777803920  0.289876023155
CC311D BRGA2  1  0.351904993665  0.304599797767
CC311D BRGA3  1  0.347450500075  0.307459952514
CC311D   SOD  1  0.294954293108  0.090610410351
CC311D   CLA  1  0.371504765465  0.162045623205
CC311D   PG0  1  0.360813980847  0.320014464673
CC311D   PG1  1  0.360813980847  0.320014464673
CC311D   PG2  1  0.360813980847  0.320014464673
CC311D  ALG1  1  0.347450500075  0.337324864189
CC311D   LPH  1  0.169270756447  0.000000000000
CC311D CLGR1  1  0.334977918021  0.200657590935
CC311D BRGR1  1  0.345668702638  0.236682781799
CC311D  IGR1  1  0.368832069310  0.301712530731
CC311D SG2P1  1  0.355798221064  0.332305491450
CC311D OG2S1  1  0.318906105146  0.157831660601
CC311D SG2P2  1  0.352314807076  0.329421919951
CC311D SEGD1  1  0.363041227642  0.330244580395
CC311D BG201  1  0.396449929572  0.081561175077
CC311D CC301  1  0.338541512893  0.041840000000
CC311D CC3062  1  0.338541512893  0.041840000000
CC311D CC311  1  0.338541512893  0.041840000000
CC311D CC3161  1  0.338541512893  0.041840000000
CC311D CC3162  1  0.338541512893  0.041840000000
CC311D CC3163  1  0.338541512893  0.041840000000
CC311D CC321  1  0.338541512893  0.041840000000
CC311D CC3261  1  0.338541512893  0.041840000000
CC311D CC3263  1  0.338541512893  0.041840000000
CC311D CC331  1  0.338541512893  0.041840000000
CC311D CC2O1  1  0.347450500075  0.138767581228
CC311D CC2O2  1  0.347450500075  0.110698234855
CC311D CC2O3  1  0.347450500075  0.125520000000
CC311D CC2O4  1  0.329632525712  0.102486650838
CC311D CC2O5  1  0.320723538531  0.130979917850
CC311D OC2D1  1  0.293996576986  0.144938011577
CC311D OC2D2  1  0.320723538531  0.144938011577
CC311D OC2D3  1  0.293996576986  0.144938011577
CC311D OC2D4  1  0.293996576986  0.144938011577
CC311D OC3C61  1  0.316269044940  0.132309697301
CC311D OC311  1  0.326514380198  0.183381431383
CC311D NC2D1  1  0.307360057758  0.187114168357
CC311D  HCP1  1  0.189271432669  0.089736802707
CC311D  HCA1  1  0.288651184677  0.088756043175
CC311D  HCA2  1  0.288651184677  0.078275472531
CC311D  HCA3  1  0.288651184677  0.064818249282
CC311D CC312  1  0.338541512893  0.041840000000
CC311D CC322  1  0.338541512893  0.041840000000
CC311D  HCR1  1  0.240542653898  0.089736802707
CC311D HCA3M  1  0.288651184677  0.064818249282
CC311D CC321C  1  0.338541512893  0.041840000000
CC311D CC321D  1  0.338541512893  0.041840000000
CC311D CC311C  1  0.338541512893  0.041840000000
CC311D CC311D  1  0.338541512893  0.041840000000
CC311D OC301  1  0.316269044940  0.132309697301
CC311D OC302  1  0.316269044940  0.132309697301
CC311D HCP1M  1  0.189271432669  0.089736802707
CC311D OC311M  1  0.326514380198  0.183381431383
CC311D OC3C5M  1  0.316269044940  0.132309697301
CC311D CC322C  1  0.338541512893  0.041840000000
CC311D HCA2C2  1  0.285087589805  0.078275472531
CC311D CC312C  1  0.338541512893  0.041840000000
CC311D HCA1C2  1  0.288651184677  0.088756043175
CC311D OC3C51  1  0.316269044940  0.132309697301
CC311D CC3152  1  0.338541512893  0.041840000000
CC311D CC3051  1  0.338541512893  0.041840000000
CC311D CC3251  1  0.338541512893  0.041840000000
CC311D CC3151  1  0.338541512893  0.041840000000
CC311D CC3153  1  0.338541512893  0.041840000000
CC311D OC2DP  1  0.320723538531  0.144938011577
CC311D OC312  1  0.326959829558  0.163176000000
CC311D OC30P  1  0.326959829558  0.163176000000
CC311D    PC  1  0.360813980847  0.320014464673
CC311D    SC  1  0.356359487256  0.286840588481
CC311D CC312D  1  0.338541512893  0.041840000000
CC311D OC303  1  0.316269044940  0.132309697301
CC311D NC311  1  0.347450500075  0.088756043175
CC311D   HN1  1  0.189271432669  0.089736802707
CC311D   HN2  1  0.189271432669  0.089736802707
CC311D   HN3  1  0.267269615442  0.089736802707
CC311D   HN4  1  0.189271432669  0.089736802707
CC311D   HN5  1  0.189271432669  0.089736802707
CC311D   HN6  1  0.286869387241  0.062058748940
CC311D   HN7  1  0.286869387241  0.062058748940
CC311D   HN8  1  0.288651184677  0.070011711020
CC311D   HN9  1  0.288651184677  0.064818249282
CC311D   NN1  1  0.334087019303  0.187114168357
CC311D   NN2  1  0.334087019303  0.187114168357
CC311D  NN2B  1  0.334087019303  0.187114168357
CC311D  NN2G  1  0.334087019303  0.187114168357
CC311D  NN2U  1  0.334087019303  0.187114168357
CC311D   NN3  1  0.334087019303  0.187114168357
CC311D  NN3A  1  0.334087019303  0.187114168357
CC311D  NN3G  1  0.334087019303  0.187114168357
CC311D   NN4  1  0.334087019303  0.187114168357
CC311D   NN6  1  0.334087019303  0.187114168357
CC311D   ON1  1  0.320723538531  0.144938011577
CC311D  ON1C  1  0.320723538531  0.144938011577
CC311D   ON2  1  0.326959829558  0.163176000000
CC311D   ON3  1  0.320723538531  0.144938011577
CC311D   ON4  1  0.326959829558  0.163176000000
CC311D   ON5  1  0.326959829558  0.163176000000
CC311D   ON6  1  0.326959829558  0.163176000000
CC311D  ON6B  1  0.326959829558  0.163176000000
CC311D   CN1  1  0.338541512893  0.132309697301
CC311D  CN1T  1  0.338541512893  0.132309697301
CC311D   CN2  1  0.338541512893  0.132309697301
CC311D   CN3  1  0.338541512893  0.125520000000
CC311D  CN3T  1  0.338541512893  0.125520000000
CC311D   CN4  1  0.338541512893  0.114583559030
CC311D   CN5  1  0.338541512893  0.114583559030
CC311D  CN5G  1  0.338541512893  0.114583559030
CC311D   CN7  1  0.338541512893  0.041840000000
CC311D  CN7B  1  0.338541512893  0.041840000000
CC311D   CN8  1  0.338541512893  0.041840000000
CC311D  CN8B  1  0.338541512893  0.041840000000
CC311D   CN9  1  0.338541512893  0.041840000000
CC311D     P  1  0.360813980847  0.320014464673
CC311D    P2  1  0.360813980847  0.320014464673
CC311D    P3  1  0.360813980847  0.320014464673
CC311D    P4  1  0.360813980847  0.320014464673
CC311D   HOL  1  0.189271432669  0.089736802707
CC311D  HAL1  1  0.286869387241  0.062058748940
CC311D  HAL2  1  0.288651184677  0.070011711020
CC311D  HAL3  1  0.288651184677  0.064818249282
CC311D   HBL  1  0.286869387241  0.062058748940
CC311D   HCL  1  0.189271432669  0.089736802707
CC311D    HL  1  0.231633666716  0.089736802707
CC311D  HEL1  1  0.280633096214  0.073666921749
CC311D  HEL2  1  0.281523994932  0.067464972838
CC311D    CL  1  0.347450500075  0.110698234855
CC311D   CCL  1  0.347450500075  0.110698234855
CC311D  CTL1  1  0.338541512893  0.041840000000
CC311D  CTL2  1  0.338541512893  0.041840000000
CC311D  CTL3  1  0.338541512893  0.041840000000
CC311D  CTL5  1  0.338541512893  0.041840000000
CC311D  CEL1  1  0.355468588538  0.109105371453
CC311D  CEL2  1  0.354577689820  0.105847757841
CC311D  CRL1  1  0.338541512893  0.041840000000
CC311D  CRL2  1  0.338541512893  0.041840000000
CC311D   OBL  1  0.293996576986  0.144938011577
CC311D   OCL  1  0.320723538531  0.144938011577
CC311D   O2L  1  0.320723538531  0.144938011577
CC311D   OHL  1  0.326959829558  0.163176000000
CC311D   OSL  1  0.316269044940  0.132309697301
CC311D  OSLP  1  0.316269044940  0.132309697301
CC311D  NH3L  1  0.334087019303  0.187114168357
CC311D   NTL  1  0.334087019303  0.187114168357
CC311D    SL  1  0.356359487256  0.286840588481
CC311D    PL  1  0.360813980847  0.320014464673
CC311D HCA1A  1  0.288651184677  0.088756043175
CC311D HCA2A  1  0.288651184677  0.078275472531
CC311D HCA3A  1  0.288651184677  0.064818249282
CC311D CC30A  1  0.338541512893  0.041840000000
CC311D CC31A  1  0.338541512893  0.041840000000
CC311D CC32A  1  0.338541512893  0.041840000000
CC311D CC33A  1  0.338541512893  0.041840000000
CC311D CC326A  1  0.338541512893  0.041840000000
CC311D HCA25A  1  0.285087589805  0.078275472531
CC311D CC325A  1  0.338541512893  0.041840000000
CC311D CC325B  1  0.338541512893  0.041840000000
CC311D OC305A  1  0.316269044940  0.132309697301
CC311D OC30A  1  0.316269044940  0.132309697301
CC311D  HSIO  1  0.189271432669  0.089736802707
CC311D  HSIA  1  0.286869387241  0.062058748940
CC311D   HAL  1  0.286869387241  0.062058748940
CC311D    AL  1  0.365268474438  0.337324864189
CC311D    SI  1  0.365268474438  0.324091246411
CC311D  SIH3  1  0.365268474438  0.324091246411
CC311D  OSIH  1  0.326959829558  0.163176000000
CC311D  OSIE  1  0.326959829558  0.163176000000
CC311D  OSIA  1  0.326959829558  0.163176000000
CC311D   OAL  1  0.326959829558  0.163176000000
CC311D    HT  1  0.189271432669  0.089736802707
CC311D    OT  1  0.326799467788  0.163176000000
CC311D   DUM  1  0.169270756447  0.000000000000
CC311D    CM  1  0.356359487256  0.138767581228
CC311D   CPA  1  0.329632525712  0.125520000000
CC311D   CPB  1  0.329632525712  0.125520000000
CC311D   CPM  1  0.329632525712  0.125520000000
CC311D   CST  1  0.308518226092  0.100764063435
CC311D  CT1X  1  0.338541512893  0.041840000000
CC311D  CT2X  1  0.338541512893  0.041840000000
CC311D  CT3X  1  0.338541512893  0.041840000000
CC311D    HB  1  0.286869387241  0.062058748940
CC311D   NPH  1  0.334087019303  0.187114168357
CC311D    OM  1  0.320723538531  0.144938011577
CC311D   OST  1  0.320010819556  0.169954883425
CC311D   POT  1  0.326403017859  0.123410269913
CC311D   CAL  1  0.291056611216  0.144938011577
CC311D    MG  1  0.274842254546  0.051243325419
CC311D   CES  1  0.356359487256  0.182376331798
CC311D    ZN  1  0.266378716724  0.209200000000
CC311D    FE  1  0.227179173126  0.000000000000
CC311D    HE  1  0.301123766731  0.061020452073
CC311D    NE  1  0.305578260322  0.122698965603
CC311D  CLAL  1  0.339272049842  0.072469005789
CC311D    AG  1  0.300901042052  0.893457908130
CC311D    AU  1  0.300722862308  0.962320000000
CC311D    CU  1  0.285800308779  0.908997471504
CC311D    NI  1  0.282949432881  0.994525446633
CC311D    PB  1  0.328073452955  0.716185437439
CC311D    PD  1  0.294842930769  1.037598257516
CC311D    PT  1  0.296001099102  1.168527606863
CC311D   CAP  1  0.346773417049  0.110698234855
CC311D    FA  1  0.320723538531  0.144938011577
CC311D    CN  1  0.325178032121  0.187114168357
CC311D    NC  1  0.334087019303  0.324091246411
CC311D   OCA  1  0.293996576986  0.144938011577
CC311D   COA  1  0.347450500075  0.138767581228
CC311D   CF1  1  0.338541512893  0.102486650838
CC311D   CF2  1  0.351904993665  0.085746484010
CC311D   CF3  1  0.374177461619  0.059170695450
CC311D   HF1  1  0.286869387241  0.070011711020
CC311D   HF2  1  0.285087589805  0.072469005789
CC311D    F1  1  0.314487247504  0.153729976257
CC311D    F2  1  0.314487247504  0.135577095411
CC311D    F3  1  0.311814551349  0.130309939452
CC311D    OX  1  0.320723538531  0.144938011577
CC311D    HX  1  0.189271432669  0.089736802707
CC311D  HPER  1  0.189271432669  0.089736802707
CC311D  OPER  1  0.318427692534  0.188901923946
CC311D   LIT  1  0.284864865125  0.020196198771
CC311D   RUB  1  0.338541512893  0.162045623205
CC311D   BAR  1  0.337650614175  0.162045623205
CC311D   CAD  1  0.290165712498  0.144938011577
CC311D  ON2B  1  0.326959829558  0.163176000000
CC311D    SP  1  0.365268474438  0.280671252536
CC311D   HNP  1  0.290272620344  0.072469005789
CC311D  HNE1  1  0.280633096214  0.073666921749
CC311D  HNE2  1  0.281523994932  0.067464972838
CC311D  CN3D  1  0.338541512893  0.125520000000
CC311D  CNE1  1  0.355468588538  0.109105371453
CC311D  CNE2  1  0.354577689820  0.105847757841
CC311D   CNA  1  0.346773417049  0.110698234855
CC311D  CNA2  1  0.338541512893  0.110698234855
CC311D   CNG  1  0.347450500075  0.138767581228
CC311D  NN1C  1  0.334087019303  0.187114168357
CC311D  NN2C  1  0.334087019303  0.187114168357
CC311D  NN3I  1  0.334087019303  0.187114168357
CC311D   NNG  1  0.334087019303  0.187114168357
CC311D   FNA  1  0.320723538531  0.144938011577
CC311D  ON2M  1  0.316269044940  0.132309697301
CC311D   CN6  1  0.338541512893  0.041840000000
CC311D  CN7E  1  0.338541512893  0.041840000000
CC311D  CT2P  1  0.338541512893  0.041840000000
CC311D  CTD1  1  0.338541512893  0.041840000000
CC311D  CPD1  1  0.338541512893  0.041840000000
CC311D  CC1A  1  0.355468588538  0.109105371453
CC311D  CC1B  1  0.355468588538  0.109105371453
CC311D   CC2  1  0.354577689820  0.105847757841
CC311D   NS1  1  0.334087019303  0.187114168357
CC311D   NS2  1  0.334087019303  0.187114168357
CC311D   NHL  1  0.307360057758  0.187114168357
CC311D  CTO1  1  0.338541512893  0.041840000000
CC311D  CEL3  1  0.355468588538  0.109105371453
CC311D  CTO2  1  0.338541512893  0.041840000000
CC311D  HN3B  1  0.249451641079  0.089736802707
CC311D  CN1A  1  0.347450500075  0.110698234855
CC311D  CN3A  1  0.329632525712  0.177512086349
CC311D  CN3B  1  0.329632525712  0.177512086349
CC311D  CN3C  1  0.329632525712  0.177512086349
CC322C     C  1  0.347450500075  0.138767581228
CC322C    CA  1  0.346773417049  0.110698234855
CC322C    CC  1  0.347450500075  0.110698234855
CC322C    CD  1  0.347450500075  0.110698234855
CC322C   CE1  1  0.355468588538  0.109105371453
CC322C   CE2  1  0.354577689820  0.105847757841
CC322C   CP1  1  0.338541512893  0.041840000000
CC322C   CP2  1  0.338541512893  0.041840000000
CC322C   CP3  1  0.338541512893  0.041840000000
CC322C  CPH1  1  0.329632525712  0.093557084179
CC322C  CPH2  1  0.329632525712  0.093557084179
CC322C    CS  1  0.365268474438  0.138767581228
CC322C   CPT  1  0.334977918021  0.131646486622
CC322C    CY  1  0.346559601357  0.113045454929
CC322C   CAI  1  0.346559601357  0.113045454929
CC322C    CT  1  0.338541512893  0.041840000000
CC322C   CT1  1  0.338541512893  0.041840000000
CC322C   CT2  1  0.338541512893  0.041840000000
CC322C  CT2A  1  0.338541512893  0.041840000000
CC322C   CT3  1  0.338541512893  0.041840000000
CC322C    C3  1  0.371950214824  0.059170695450
CC322C     H  1  0.189271432669  0.089736802707
CC322C    HA  1  0.286869387241  0.062058748940
CC322C   HB1  1  0.286869387241  0.062058748940
CC322C   HB2  1  0.288651184677  0.070011711020
CC322C   HE1  1  0.280633096214  0.073666921749
CC322C   HE2  1  0.281523994932  0.067464972838
CC322C    HC  1  0.189271432669  0.089736802707
CC322C    HP  1  0.290272620344  0.072469005789
CC322C   HR1  1  0.249451641079  0.089736802707
CC322C   HR2  1  0.231633666716  0.089736802707
CC322C   HR3  1  0.300054688270  0.036952087465
CC322C    HS  1  0.209361198763  0.132309697301
CC322C   HA1  1  0.288651184677  0.088756043175
CC322C   HA2  1  0.288651184677  0.077149148019
CC322C   HA3  1  0.288651184677  0.064818249282
CC322C     N  1  0.334087019303  0.004184000000
CC322C   NC2  1  0.334087019303  0.187114168357
CC322C   NH1  1  0.307360057758  0.187114168357
CC322C   NH2  1  0.334087019303  0.187114168357
CC322C   NH3  1  0.334087019303  0.187114168357
CC322C    NP  1  0.334087019303  0.187114168357
CC322C   NR1  1  0.334087019303  0.187114168357
CC322C   NR2  1  0.334087019303  0.187114168357
CC322C   NR3  1  0.334087019303  0.187114168357
CC322C    NY  1  0.334087019303  0.187114168357
CC322C     O  1  0.293996576986  0.144938011577
CC322C    OB  1  0.293996576986  0.144938011577
CC322C    OC  1  0.320723538531  0.144938011577
CC322C   OH1  1  0.326959829558  0.163176000000
CC322C    OS  1  0.326959829558  0.163176000000
CC322C     S  1  0.347450500075  0.280671252536
CC322C    SM  1  0.345223253279  0.257919081884
CC322C    SS  1  0.365268474438  0.286840588481
CC322C  HGA1  1  0.288651184677  0.088756043175
CC322C  HGA2  1  0.288651184677  0.078275472531
CC322C  HGA3  1  0.288651184677  0.064818249282
CC322C  HGA4  1  0.280633096214  0.073666921749
CC322C  HGA5  1  0.281523994932  0.067464972838
CC322C  HGA6  1  0.286869387241  0.070011711020
CC322C  HGA7  1  0.285087589805  0.072469005789
CC322C HGAAM0  1  0.283305792369  0.070011711020
CC322C HGAAM1  1  0.283305792369  0.070011711020
CC322C HGAAM2  1  0.281523994932  0.083680000000
CC322C  HGP1  1  0.189271432669  0.089736802707
CC322C  HGP2  1  0.189271432669  0.089736802707
CC322C  HGP3  1  0.209361198763  0.132309697301
CC322C  HGP4  1  0.189271432669  0.089736802707
CC322C  HGP5  1  0.231633666716  0.089736802707
CC322C HGPAM1  1  0.247224394284  0.039692909190
CC322C HGPAM2  1  0.247224394284  0.041840000000
CC322C HGPAM3  1  0.246778944925  0.045833423612
CC322C HGR51  1  0.290272620344  0.072469005789
CC322C HGR52  1  0.249451641079  0.089736802707
CC322C HGR53  1  0.231633666716  0.089736802707
CC322C HGR61  1  0.290272620344  0.072469005789
CC322C HGR62  1  0.267269615442  0.089736802707
CC322C HGR63  1  0.249451641079  0.089736802707
CC322C HGR71  1  0.290272620344  0.072469005789
CC322C HGTIP3  1  0.189271432669  0.089736802707
CC322C CG1T1  1  0.333196120584  0.170981810495
CC322C CG1T2  1  0.346782326036  0.134409982486
CC322C CG1N1  1  0.335868816739  0.177512086349
CC322C CG2D1  1  0.355468588538  0.109105371453
CC322C CG2D2  1  0.354577689820  0.105847757841
CC322C CG2D1O  1  0.355468588538  0.109105371453
CC322C CG2D2O  1  0.355468588538  0.109105371453
CC322C CG2DC1  1  0.355468588538  0.109105371453
CC322C CG2DC2  1  0.355468588538  0.109105371453
CC322C CG2DC3  1  0.354577689820  0.105847757841
CC322C CG2N1  1  0.347450500075  0.138767581228
CC322C CG2N2  1  0.347450500075  0.138767581228
CC322C CG2O1  1  0.347450500075  0.138767581228
CC322C CG2O2  1  0.320723538531  0.130979917850
CC322C CG2O3  1  0.347450500075  0.110698234855
CC322C CG2O4  1  0.329632525712  0.102486650838
CC322C CG2O5  1  0.347450500075  0.125520000000
CC322C CG2O6  1  0.347450500075  0.110698234855
CC322C CG2O7  1  0.308518226092  0.100764063435
CC322C CG2R51  1  0.356359487256  0.093557084179
CC322C CG2R52  1  0.365268474438  0.059170695450
CC322C CG2R53  1  0.365268474438  0.059170695450
CC322C CG2R57  1  0.356359487256  0.093557084179
CC322C CG25C1  1  0.355468588538  0.109105371453
CC322C CG25C2  1  0.355468588538  0.109105371453
CC322C CG251O  1  0.355468588538  0.109105371453
CC322C CG252O  1  0.355468588538  0.109105371453
CC322C CG2R61  1  0.346773417049  0.110698234855
CC322C CG2R62  1  0.338541512893  0.125520000000
CC322C CG2R63  1  0.338541512893  0.132309697301
CC322C CG2R64  1  0.356359487256  0.083680000000
CC322C CG2R66  1  0.338541512893  0.110698234855
CC322C CG2R67  1  0.346773417049  0.110698234855
CC322C CG2RC0  1  0.334977918021  0.131646486622
CC322C CG2R71  1  0.346987232741  0.108300154755
CC322C CG2RC7  1  0.334977918021  0.131646486622
CC322C CG301  1  0.338541512893  0.041840000000
CC322C CG302  1  0.374177461619  0.059170695450
CC322C CG311  1  0.338541512893  0.041840000000
CC322C CG312  1  0.351904993665  0.085746484010
CC322C CG314  1  0.338541512893  0.041840000000
CC322C CG321  1  0.338541512893  0.041840000000
CC322C CG322  1  0.338541512893  0.102486650838
CC322C CG323  1  0.365268474438  0.138767581228
CC322C CG324  1  0.338541512893  0.041840000000
CC322C CG331  1  0.338541512893  0.041840000000
CC322C CG334  1  0.338541512893  0.041840000000
CC322C CG3C50  1  0.338541512893  0.041840000000
CC322C CG3C51  1  0.338541512893  0.041840000000
CC322C CG3C52  1  0.338541512893  0.041840000000
CC322C CG3C53  1  0.338541512893  0.041840000000
CC322C CG3C54  1  0.338541512893  0.041840000000
CC322C CG3C31  1  0.338541512893  0.041840000000
CC322C CG3C41  1  0.338541512893  0.041840000000
CC322C CG3RC1  1  0.338541512893  0.041840000000
CC322C CG3AM0  1  0.344777803920  0.110698234855
CC322C CG3AM1  1  0.345668702638  0.116852760686
CC322C CG3AM2  1  0.346559601357  0.118341390899
CC322C NG1T1  1  0.328741626994  0.177512086349
CC322C NG2D1  1  0.334087019303  0.187114168357
CC322C NG2S0  1  0.334087019303  0.004184000000
CC322C NG2S1  1  0.307360057758  0.187114168357
CC322C NG2S2  1  0.334087019303  0.187114168357
CC322C NG2S3  1  0.334087019303  0.187114168357
CC322C NG2O1  1  0.334087019303  0.187114168357
CC322C NG2P1  1  0.334087019303  0.187114168357
CC322C NG2R43  1  0.334087019303  0.187114168357
CC322C NG2R50  1  0.334087019303  0.187114168357
CC322C NG2R51  1  0.334087019303  0.187114168357
CC322C NG2R52  1  0.334087019303  0.187114168357
CC322C NG2R53  1  0.334087019303  0.187114168357
CC322C NG2R57  1  0.334087019303  0.187114168357
CC322C NG2R60  1  0.337650614175  0.102486650838
CC322C NG2R61  1  0.334087019303  0.187114168357
CC322C NG2R62  1  0.352795892384  0.093557084179
CC322C NG2R67  1  0.334087019303  0.187114168357
CC322C NG2RC0  1  0.334087019303  0.187114168357
CC322C NG301  1  0.347450500075  0.078275472531
CC322C NG311  1  0.347450500075  0.088756043175
CC322C NG321  1  0.346559601357  0.102486650838
CC322C NG331  1  0.345668702638  0.110698234855
CC322C NG3C51  1  0.334087019303  0.187114168357
CC322C NG3N1  1  0.351904993665  0.102486650838
CC322C NG3P0  1  0.334087019303  0.187114168357
CC322C NG3P1  1  0.334087019303  0.187114168357
CC322C NG3P2  1  0.334087019303  0.187114168357
CC322C NG3P3  1  0.334087019303  0.187114168357
CC322C OG2D1  1  0.293996576986  0.144938011577
CC322C OG2D2  1  0.320723538531  0.144938011577
CC322C OG2D3  1  0.293996576986  0.144938011577
CC322C OG2D4  1  0.320723538531  0.144938011577
CC322C OG2D5  1  0.320010819556  0.169954883425
CC322C OG2N1  1  0.320723538531  0.144938011577
CC322C OG2P1  1  0.320723538531  0.144938011577
CC322C OG2R50  1  0.320723538531  0.144938011577
CC322C OG3R60  1  0.316269044940  0.132309697301
CC322C OG301  1  0.316269044940  0.132309697301
CC322C OG302  1  0.316269044940  0.132309697301
CC322C OG303  1  0.316269044940  0.132309697301
CC322C OG304  1  0.316269044940  0.132309697301
CC322C OG311  1  0.326514380198  0.183381431383
CC322C OG312  1  0.325178032121  0.144938011577
CC322C OG3C31  1  0.316269044940  0.132309697301
CC322C OG3C51  1  0.316269044940  0.132309697301
CC322C OG3C61  1  0.316269044940  0.132309697301
CC322C OGTIP3  1  0.326799467788  0.163176000000
CC322C SG2D1  1  0.351904993665  0.314496560236
CC322C SG2R50  1  0.347450500075  0.280671252536
CC322C SG311  1  0.347450500075  0.280671252536
CC322C SG301  1  0.345223253279  0.257919081884
CC322C SG302  1  0.365268474438  0.286840588481
CC322C SG3O1  1  0.356359487256  0.286840588481
CC322C SG3O2  1  0.347450500075  0.247528778125
CC322C SG3O3  1  0.347450500075  0.247528778125
CC322C  FGA1  1  0.314487247504  0.153729976257
CC322C  FGA2  1  0.314487247504  0.135577095411
CC322C  FGA3  1  0.311814551349  0.130309939452
CC322C  FGP1  1  0.311814551349  0.130309939452
CC322C  FGR1  1  0.320723538531  0.144938011577
CC322C CLGA1  1  0.339432411611  0.245040988571
CC322C CLGA3  1  0.339432411611  0.232955260941
CC322C BRGA1  1  0.344777803920  0.289876023155
CC322C BRGA2  1  0.351904993665  0.304599797767
CC322C BRGA3  1  0.347450500075  0.307459952514
CC322C   SOD  1  0.294954293108  0.090610410351
CC322C   CLA  1  0.371504765465  0.162045623205
CC322C   PG0  1  0.360813980847  0.320014464673
CC322C   PG1  1  0.360813980847  0.320014464673
CC322C   PG2  1  0.360813980847  0.320014464673
CC322C  ALG1  1  0.347450500075  0.337324864189
CC322C   LPH  1  0.169270756447  0.000000000000
CC322C CLGR1  1  0.334977918021  0.200657590935
CC322C BRGR1  1  0.345668702638  0.236682781799
CC322C  IGR1  1  0.368832069310  0.301712530731
CC322C SG2P1  1  0.355798221064  0.332305491450
CC322C OG2S1  1  0.318906105146  0.157831660601
CC322C SG2P2  1  0.352314807076  0.329421919951
CC322C SEGD1  1  0.363041227642  0.330244580395
CC322C BG201  1  0.396449929572  0.081561175077
CC322C CC301  1  0.338541512893  0.041840000000
CC322C CC3062  1  0.338541512893  0.041840000000
CC322C CC311  1  0.338541512893  0.041840000000
CC322C CC3161  1  0.338541512893  0.041840000000
CC322C CC3162  1  0.338541512893  0.041840000000
CC322C CC3163  1  0.338541512893  0.041840000000
CC322C CC321  1  0.338541512893  0.041840000000
CC322C CC3261  1  0.338541512893  0.041840000000
CC322C CC3263  1  0.338541512893  0.041840000000
CC322C CC331  1  0.338541512893  0.041840000000
CC322C CC2O1  1  0.347450500075  0.138767581228
CC322C CC2O2  1  0.347450500075  0.110698234855
CC322C CC2O3  1  0.347450500075  0.125520000000
CC322C CC2O4  1  0.329632525712  0.102486650838
CC322C CC2O5  1  0.320723538531  0.130979917850
CC322C OC2D1  1  0.293996576986  0.144938011577
CC322C OC2D2  1  0.320723538531  0.144938011577
CC322C OC2D3  1  0.293996576986  0.144938011577
CC322C OC2D4  1  0.293996576986  0.144938011577
CC322C OC3C61  1  0.316269044940  0.132309697301
CC322C OC311  1  0.326514380198  0.183381431383
CC322C NC2D1  1  0.307360057758  0.187114168357
CC322C  HCP1  1  0.189271432669  0.089736802707
CC322C  HCA1  1  0.288651184677  0.088756043175
CC322C  HCA2  1  0.288651184677  0.078275472531
CC322C  HCA3  1  0.288651184677  0.064818249282
CC322C CC312  1  0.338541512893  0.041840000000
CC322C CC322  1  0.338541512893  0.041840000000
CC322C  HCR1  1  0.240542653898  0.089736802707
CC322C HCA3M  1  0.288651184677  0.064818249282
CC322C CC321C  1  0.338541512893  0.041840000000
CC322C CC321D  1  0.338541512893  0.041840000000
CC322C CC311C  1  0.338541512893  0.041840000000
CC322C CC311D  1  0.338541512893  0.041840000000
CC322C OC301  1  0.316269044940  0.132309697301
CC322C OC302  1  0.316269044940  0.132309697301
CC322C HCP1M  1  0.189271432669  0.089736802707
CC322C OC311M  1  0.326514380198  0.183381431383
CC322C OC3C5M  1  0.316269044940  0.132309697301
CC322C CC322C  1  0.338541512893  0.041840000000
CC322C HCA2C2  1  0.285087589805  0.078275472531
CC322C CC312C  1  0.338541512893  0.041840000000
CC322C HCA1C2  1  0.288651184677  0.088756043175
CC322C OC3C51  1  0.316269044940  0.132309697301
CC322C CC3152  1  0.338541512893  0.041840000000
CC322C CC3051  1  0.338541512893  0.041840000000
CC322C CC3251  1  0.338541512893  0.041840000000
CC322C CC3151  1  0.338541512893  0.041840000000
CC322C CC3153  1  0.338541512893  0.041840000000
CC322C OC2DP  1  0.320723538531  0.144938011577
CC322C OC312  1  0.326959829558  0.163176000000
CC322C OC30P  1  0.326959829558  0.163176000000
CC322C    PC  1  0.360813980847  0.320014464673
CC322C    SC  1  0.356359487256  0.286840588481
CC322C CC312D  1  0.338541512893  0.041840000000
CC322C OC303  1  0.316269044940  0.132309697301
CC322C NC311  1  0.347450500075  0.088756043175
CC322C   HN1  1  0.189271432669  0.089736802707
CC322C   HN2  1  0.189271432669  0.089736802707
CC322C   HN3  1  0.267269615442  0.089736802707
CC322C   HN4  1  0.189271432669  0.089736802707
CC322C   HN5  1  0.189271432669  0.089736802707
CC322C   HN6  1  0.286869387241  0.062058748940
CC322C   HN7  1  0.286869387241  0.062058748940
CC322C   HN8  1  0.288651184677  0.070011711020
CC322C   HN9  1  0.288651184677  0.064818249282
CC322C   NN1  1  0.334087019303  0.187114168357
CC322C   NN2  1  0.334087019303  0.187114168357
CC322C  NN2B  1  0.334087019303  0.187114168357
CC322C  NN2G  1  0.334087019303  0.187114168357
CC322C  NN2U  1  0.334087019303  0.187114168357
CC322C   NN3  1  0.334087019303  0.187114168357
CC322C  NN3A  1  0.334087019303  0.187114168357
CC322C  NN3G  1  0.334087019303  0.187114168357
CC322C   NN4  1  0.334087019303  0.187114168357
CC322C   NN6  1  0.334087019303  0.187114168357
CC322C   ON1  1  0.320723538531  0.144938011577
CC322C  ON1C  1  0.320723538531  0.144938011577
CC322C   ON2  1  0.326959829558  0.163176000000
CC322C   ON3  1  0.320723538531  0.144938011577
CC322C   ON4  1  0.326959829558  0.163176000000
CC322C   ON5  1  0.326959829558  0.163176000000
CC322C   ON6  1  0.326959829558  0.163176000000
CC322C  ON6B  1  0.326959829558  0.163176000000
CC322C   CN1  1  0.338541512893  0.132309697301
CC322C  CN1T  1  0.338541512893  0.132309697301
CC322C   CN2  1  0.338541512893  0.132309697301
CC322C   CN3  1  0.338541512893  0.125520000000
CC322C  CN3T  1  0.338541512893  0.125520000000
CC322C   CN4  1  0.338541512893  0.114583559030
CC322C   CN5  1  0.338541512893  0.114583559030
CC322C  CN5G  1  0.338541512893  0.114583559030
CC322C   CN7  1  0.338541512893  0.041840000000
CC322C  CN7B  1  0.338541512893  0.041840000000
CC322C   CN8  1  0.338541512893  0.041840000000
CC322C  CN8B  1  0.338541512893  0.041840000000
CC322C   CN9  1  0.338541512893  0.041840000000
CC322C     P  1  0.360813980847  0.320014464673
CC322C    P2  1  0.360813980847  0.320014464673
CC322C    P3  1  0.360813980847  0.320014464673
CC322C    P4  1  0.360813980847  0.320014464673
CC322C   HOL  1  0.189271432669  0.089736802707
CC322C  HAL1  1  0.286869387241  0.062058748940
CC322C  HAL2  1  0.288651184677  0.070011711020
CC322C  HAL3  1  0.288651184677  0.064818249282
CC322C   HBL  1  0.286869387241  0.062058748940
CC322C   HCL  1  0.189271432669  0.089736802707
CC322C    HL  1  0.231633666716  0.089736802707
CC322C  HEL1  1  0.280633096214  0.073666921749
CC322C  HEL2  1  0.281523994932  0.067464972838
CC322C    CL  1  0.347450500075  0.110698234855
CC322C   CCL  1  0.347450500075  0.110698234855
CC322C  CTL1  1  0.338541512893  0.041840000000
CC322C  CTL2  1  0.338541512893  0.041840000000
CC322C  CTL3  1  0.338541512893  0.041840000000
CC322C  CTL5  1  0.338541512893  0.041840000000
CC322C  CEL1  1  0.355468588538  0.109105371453
CC322C  CEL2  1  0.354577689820  0.105847757841
CC322C  CRL1  1  0.338541512893  0.041840000000
CC322C  CRL2  1  0.338541512893  0.041840000000
CC322C   OBL  1  0.293996576986  0.144938011577
CC322C   OCL  1  0.320723538531  0.144938011577
CC322C   O2L  1  0.320723538531  0.144938011577
CC322C   OHL  1  0.326959829558  0.163176000000
CC322C   OSL  1  0.316269044940  0.132309697301
CC322C  OSLP  1  0.316269044940  0.132309697301
CC322C  NH3L  1  0.334087019303  0.187114168357
CC322C   NTL  1  0.334087019303  0.187114168357
CC322C    SL  1  0.356359487256  0.286840588481
CC322C    PL  1  0.360813980847  0.320014464673
CC322C HCA1A  1  0.288651184677  0.088756043175
CC322C HCA2A  1  0.288651184677  0.078275472531
CC322C HCA3A  1  0.288651184677  0.064818249282
CC322C CC30A  1  0.338541512893  0.041840000000
CC322C CC31A  1  0.338541512893  0.041840000000
CC322C CC32A  1  0.338541512893  0.041840000000
CC322C CC33A  1  0.338541512893  0.041840000000
CC322C CC326A  1  0.338541512893  0.041840000000
CC322C HCA25A  1  0.285087589805  0.078275472531
CC322C CC325A  1  0.338541512893  0.041840000000
CC322C CC325B  1  0.338541512893  0.041840000000
CC322C OC305A  1  0.316269044940  0.132309697301
CC322C OC30A  1  0.316269044940  0.132309697301
CC322C  HSIO  1  0.189271432669  0.089736802707
CC322C  HSIA  1  0.286869387241  0.062058748940
CC322C   HAL  1  0.286869387241  0.062058748940
CC322C    AL  1  0.365268474438  0.337324864189
CC322C    SI  1  0.365268474438  0.324091246411
CC322C  SIH3  1  0.365268474438  0.324091246411
CC322C  OSIH  1  0.326959829558  0.163176000000
CC322C  OSIE  1  0.326959829558  0.163176000000
CC322C  OSIA  1  0.326959829558  0.163176000000
CC322C   OAL  1  0.326959829558  0.163176000000
CC322C    HT  1  0.189271432669  0.089736802707
CC322C    OT  1  0.326799467788  0.163176000000
CC322C   DUM  1  0.169270756447  0.000000000000
CC322C    CM  1  0.356359487256  0.138767581228
CC322C   CPA  1  0.329632525712  0.125520000000
CC322C   CPB  1  0.329632525712  0.125520000000
CC322C   CPM  1  0.329632525712  0.125520000000
CC322C   CST  1  0.308518226092  0.100764063435
CC322C  CT1X  1  0.338541512893  0.041840000000
CC322C  CT2X  1  0.338541512893  0.041840000000
CC322C  CT3X  1  0.338541512893  0.041840000000
CC322C    HB  1  0.286869387241  0.062058748940
CC322C   NPH  1  0.334087019303  0.187114168357
CC322C    OM  1  0.320723538531  0.144938011577
CC322C   OST  1  0.320010819556  0.169954883425
CC322C   POT  1  0.326403017859  0.123410269913
CC322C   CAL  1  0.291056611216  0.144938011577
CC322C    MG  1  0.274842254546  0.051243325419
CC322C   CES  1  0.356359487256  0.182376331798
CC322C    ZN  1  0.266378716724  0.209200000000
CC322C    FE  1  0.227179173126  0.000000000000
CC322C    HE  1  0.301123766731  0.061020452073
CC322C    NE  1  0.305578260322  0.122698965603
CC322C  CLAL  1  0.339272049842  0.072469005789
CC322C    AG  1  0.300901042052  0.893457908130
CC322C    AU  1  0.300722862308  0.962320000000
CC322C    CU  1  0.285800308779  0.908997471504
CC322C    NI  1  0.282949432881  0.994525446633
CC322C    PB  1  0.328073452955  0.716185437439
CC322C    PD  1  0.294842930769  1.037598257516
CC322C    PT  1  0.296001099102  1.168527606863
CC322C   CAP  1  0.346773417049  0.110698234855
CC322C    FA  1  0.320723538531  0.144938011577
CC322C    CN  1  0.325178032121  0.187114168357
CC322C    NC  1  0.334087019303  0.324091246411
CC322C   OCA  1  0.293996576986  0.144938011577
CC322C   COA  1  0.347450500075  0.138767581228
CC322C   CF1  1  0.338541512893  0.102486650838
CC322C   CF2  1  0.351904993665  0.085746484010
CC322C   CF3  1  0.374177461619  0.059170695450
CC322C   HF1  1  0.286869387241  0.070011711020
CC322C   HF2  1  0.285087589805  0.072469005789
CC322C    F1  1  0.314487247504  0.153729976257
CC322C    F2  1  0.314487247504  0.135577095411
CC322C    F3  1  0.311814551349  0.130309939452
CC322C    OX  1  0.320723538531  0.144938011577
CC322C    HX  1  0.189271432669  0.089736802707
CC322C  HPER  1  0.189271432669  0.089736802707
CC322C  OPER  1  0.318427692534  0.188901923946
CC322C   LIT  1  0.284864865125  0.020196198771
CC322C   RUB  1  0.338541512893  0.162045623205
CC322C   BAR  1  0.337650614175  0.162045623205
CC322C   CAD  1  0.290165712498  0.144938011577
CC322C  ON2B  1  0.326959829558  0.163176000000
CC322C    SP  1  0.365268474438  0.280671252536
CC322C   HNP  1  0.290272620344  0.072469005789
CC322C  HNE1  1  0.280633096214  0.073666921749
CC322C  HNE2  1  0.281523994932  0.067464972838
CC322C  CN3D  1  0.338541512893  0.125520000000
CC322C  CNE1  1  0.355468588538  0.109105371453
CC322C  CNE2  1  0.354577689820  0.105847757841
CC322C   CNA  1  0.346773417049  0.110698234855
CC322C  CNA2  1  0.338541512893  0.110698234855
CC322C   CNG  1  0.347450500075  0.138767581228
CC322C  NN1C  1  0.334087019303  0.187114168357
CC322C  NN2C  1  0.334087019303  0.187114168357
CC322C  NN3I  1  0.334087019303  0.187114168357
CC322C   NNG  1  0.334087019303  0.187114168357
CC322C   FNA  1  0.320723538531  0.144938011577
CC322C  ON2M  1  0.316269044940  0.132309697301
CC322C   CN6  1  0.338541512893  0.041840000000
CC322C  CN7E  1  0.338541512893  0.041840000000
CC322C  CT2P  1  0.338541512893  0.041840000000
CC322C  CTD1  1  0.338541512893  0.041840000000
CC322C  CPD1  1  0.338541512893  0.041840000000
CC322C  CC1A  1  0.355468588538  0.109105371453
CC322C  CC1B  1  0.355468588538  0.109105371453
CC322C   CC2  1  0.354577689820  0.105847757841
CC322C   NS1  1  0.334087019303  0.187114168357
CC322C   NS2  1  0.334087019303  0.187114168357
CC322C   NHL  1  0.307360057758  0.187114168357
CC322C  CTO1  1  0.338541512893  0.041840000000
CC322C  CEL3  1  0.355468588538  0.109105371453
CC322C  CTO2  1  0.338541512893  0.041840000000
CC322C  HN3B  1  0.249451641079  0.089736802707
CC322C  CN1A  1  0.347450500075  0.110698234855
CC322C  CN3A  1  0.329632525712  0.177512086349
CC322C  CN3B  1  0.329632525712  0.177512086349
CC322C  CN3C  1  0.329632525712  0.177512086349
CC312C     C  1  0.347450500075  0.138767581228
CC312C    CA  1  0.346773417049  0.110698234855
CC312C    CC  1  0.347450500075  0.110698234855
CC312C    CD  1  0.347450500075  0.110698234855
CC312C   CE1  1  0.355468588538  0.109105371453
CC312C   CE2  1  0.354577689820  0.105847757841
CC312C   CP1  1  0.338541512893  0.041840000000
CC312C   CP2  1  0.338541512893  0.041840000000
CC312C   CP3  1  0.338541512893  0.041840000000
CC312C  CPH1  1  0.329632525712  0.093557084179
CC312C  CPH2  1  0.329632525712  0.093557084179
CC312C    CS  1  0.365268474438  0.138767581228
CC312C   CPT  1  0.334977918021  0.131646486622
CC312C    CY  1  0.346559601357  0.113045454929
CC312C   CAI  1  0.346559601357  0.113045454929
CC312C    CT  1  0.338541512893  0.041840000000
CC312C   CT1  1  0.338541512893  0.041840000000
CC312C   CT2  1  0.338541512893  0.041840000000
CC312C  CT2A  1  0.338541512893  0.041840000000
CC312C   CT3  1  0.338541512893  0.041840000000
CC312C    C3  1  0.371950214824  0.059170695450
CC312C     H  1  0.189271432669  0.089736802707
CC312C    HA  1  0.286869387241  0.062058748940
CC312C   HB1  1  0.286869387241  0.062058748940
CC312C   HB2  1  0.288651184677  0.070011711020
CC312C   HE1  1  0.280633096214  0.073666921749
CC312C   HE2  1  0.281523994932  0.067464972838
CC312C    HC  1  0.189271432669  0.089736802707
CC312C    HP  1  0.290272620344  0.072469005789
CC312C   HR1  1  0.249451641079  0.089736802707
CC312C   HR2  1  0.231633666716  0.089736802707
CC312C   HR3  1  0.300054688270  0.036952087465
CC312C    HS  1  0.209361198763  0.132309697301
CC312C   HA1  1  0.288651184677  0.088756043175
CC312C   HA2  1  0.288651184677  0.077149148019
CC312C   HA3  1  0.288651184677  0.064818249282
CC312C     N  1  0.334087019303  0.004184000000
CC312C   NC2  1  0.334087019303  0.187114168357
CC312C   NH1  1  0.307360057758  0.187114168357
CC312C   NH2  1  0.334087019303  0.187114168357
CC312C   NH3  1  0.334087019303  0.187114168357
CC312C    NP  1  0.334087019303  0.187114168357
CC312C   NR1  1  0.334087019303  0.187114168357
CC312C   NR2  1  0.334087019303  0.187114168357
CC312C   NR3  1  0.334087019303  0.187114168357
CC312C    NY  1  0.334087019303  0.187114168357
CC312C     O  1  0.293996576986  0.144938011577
CC312C    OB  1  0.293996576986  0.144938011577
CC312C    OC  1  0.320723538531  0.144938011577
CC312C   OH1  1  0.326959829558  0.163176000000
CC312C    OS  1  0.326959829558  0.163176000000
CC312C     S  1  0.347450500075  0.280671252536
CC312C    SM  1  0.345223253279  0.257919081884
CC312C    SS  1  0.365268474438  0.286840588481
CC312C  HGA1  1  0.288651184677  0.088756043175
CC312C  HGA2  1  0.288651184677  0.078275472531
CC312C  HGA3  1  0.288651184677  0.064818249282
CC312C  HGA4  1  0.280633096214  0.073666921749
CC312C  HGA5  1  0.281523994932  0.067464972838
CC312C  HGA6  1  0.286869387241  0.070011711020
CC312C  HGA7  1  0.285087589805  0.072469005789
CC312C HGAAM0  1  0.283305792369  0.070011711020
CC312C HGAAM1  1  0.283305792369  0.070011711020
CC312C HGAAM2  1  0.281523994932  0.083680000000
CC312C  HGP1  1  0.189271432669  0.089736802707
CC312C  HGP2  1  0.189271432669  0.089736802707
CC312C  HGP3  1  0.209361198763  0.132309697301
CC312C  HGP4  1  0.189271432669  0.089736802707
CC312C  HGP5  1  0.231633666716  0.089736802707
CC312C HGPAM1  1  0.247224394284  0.039692909190
CC312C HGPAM2  1  0.247224394284  0.041840000000
CC312C HGPAM3  1  0.246778944925  0.045833423612
CC312C HGR51  1  0.290272620344  0.072469005789
CC312C HGR52  1  0.249451641079  0.089736802707
CC312C HGR53  1  0.231633666716  0.089736802707
CC312C HGR61  1  0.290272620344  0.072469005789
CC312C HGR62  1  0.267269615442  0.089736802707
CC312C HGR63  1  0.249451641079  0.089736802707
CC312C HGR71  1  0.290272620344  0.072469005789
CC312C HGTIP3  1  0.189271432669  0.089736802707
CC312C CG1T1  1  0.333196120584  0.170981810495
CC312C CG1T2  1  0.346782326036  0.134409982486
CC312C CG1N1  1  0.335868816739  0.177512086349
CC312C CG2D1  1  0.355468588538  0.109105371453
CC312C CG2D2  1  0.354577689820  0.105847757841
CC312C CG2D1O  1  0.355468588538  0.109105371453
CC312C CG2D2O  1  0.355468588538  0.109105371453
CC312C CG2DC1  1  0.355468588538  0.109105371453
CC312C CG2DC2  1  0.355468588538  0.109105371453
CC312C CG2DC3  1  0.354577689820  0.105847757841
CC312C CG2N1  1  0.347450500075  0.138767581228
CC312C CG2N2  1  0.347450500075  0.138767581228
CC312C CG2O1  1  0.347450500075  0.138767581228
CC312C CG2O2  1  0.320723538531  0.130979917850
CC312C CG2O3  1  0.347450500075  0.110698234855
CC312C CG2O4  1  0.329632525712  0.102486650838
CC312C CG2O5  1  0.347450500075  0.125520000000
CC312C CG2O6  1  0.347450500075  0.110698234855
CC312C CG2O7  1  0.308518226092  0.100764063435
CC312C CG2R51  1  0.356359487256  0.093557084179
CC312C CG2R52  1  0.365268474438  0.059170695450
CC312C CG2R53  1  0.365268474438  0.059170695450
CC312C CG2R57  1  0.356359487256  0.093557084179
CC312C CG25C1  1  0.355468588538  0.109105371453
CC312C CG25C2  1  0.355468588538  0.109105371453
CC312C CG251O  1  0.355468588538  0.109105371453
CC312C CG252O  1  0.355468588538  0.109105371453
CC312C CG2R61  1  0.346773417049  0.110698234855
CC312C CG2R62  1  0.338541512893  0.125520000000
CC312C CG2R63  1  0.338541512893  0.132309697301
CC312C CG2R64  1  0.356359487256  0.083680000000
CC312C CG2R66  1  0.338541512893  0.110698234855
CC312C CG2R67  1  0.346773417049  0.110698234855
CC312C CG2RC0  1  0.334977918021  0.131646486622
CC312C CG2R71  1  0.346987232741  0.108300154755
CC312C CG2RC7  1  0.334977918021  0.131646486622
CC312C CG301  1  0.338541512893  0.041840000000
CC312C CG302  1  0.374177461619  0.059170695450
CC312C CG311  1  0.338541512893  0.041840000000
CC312C CG312  1  0.351904993665  0.085746484010
CC312C CG314  1  0.338541512893  0.041840000000
CC312C CG321  1  0.338541512893  0.041840000000
CC312C CG322  1  0.338541512893  0.102486650838
CC312C CG323  1  0.365268474438  0.138767581228
CC312C CG324  1  0.338541512893  0.041840000000
CC312C CG331  1  0.338541512893  0.041840000000
CC312C CG334  1  0.338541512893  0.041840000000
CC312C CG3C50  1  0.338541512893  0.041840000000
CC312C CG3C51  1  0.338541512893  0.041840000000
CC312C CG3C52  1  0.338541512893  0.041840000000
CC312C CG3C53  1  0.338541512893  0.041840000000
CC312C CG3C54  1  0.338541512893  0.041840000000
CC312C CG3C31  1  0.338541512893  0.041840000000
CC312C CG3C41  1  0.338541512893  0.041840000000
CC312C CG3RC1  1  0.338541512893  0.041840000000
CC312C CG3AM0  1  0.344777803920  0.110698234855
CC312C CG3AM1  1  0.345668702638  0.116852760686
CC312C CG3AM2  1  0.346559601357  0.118341390899
CC312C NG1T1  1  0.328741626994  0.177512086349
CC312C NG2D1  1  0.334087019303  0.187114168357
CC312C NG2S0  1  0.334087019303  0.004184000000
CC312C NG2S1  1  0.307360057758  0.187114168357
CC312C NG2S2  1  0.334087019303  0.187114168357
CC312C NG2S3  1  0.334087019303  0.187114168357
CC312C NG2O1  1  0.334087019303  0.187114168357
CC312C NG2P1  1  0.334087019303  0.187114168357
CC312C NG2R43  1  0.334087019303  0.187114168357
CC312C NG2R50  1  0.334087019303  0.187114168357
CC312C NG2R51  1  0.334087019303  0.187114168357
CC312C NG2R52  1  0.334087019303  0.187114168357
CC312C NG2R53  1  0.334087019303  0.187114168357
CC312C NG2R57  1  0.334087019303  0.187114168357
CC312C NG2R60  1  0.337650614175  0.102486650838
CC312C NG2R61  1  0.334087019303  0.187114168357
CC312C NG2R62  1  0.352795892384  0.093557084179
CC312C NG2R67  1  0.334087019303  0.187114168357
CC312C NG2RC0  1  0.334087019303  0.187114168357
CC312C NG301  1  0.347450500075  0.078275472531
CC312C NG311  1  0.347450500075  0.088756043175
CC312C NG321  1  0.346559601357  0.102486650838
CC312C NG331  1  0.345668702638  0.110698234855
CC312C NG3C51  1  0.334087019303  0.187114168357
CC312C NG3N1  1  0.351904993665  0.102486650838
CC312C NG3P0  1  0.334087019303  0.187114168357
CC312C NG3P1  1  0.334087019303  0.187114168357
CC312C NG3P2  1  0.334087019303  0.187114168357
CC312C NG3P3  1  0.334087019303  0.187114168357
CC312C OG2D1  1  0.293996576986  0.144938011577
CC312C OG2D2  1  0.320723538531  0.144938011577
CC312C OG2D3  1  0.293996576986  0.144938011577
CC312C OG2D4  1  0.320723538531  0.144938011577
CC312C OG2D5  1  0.320010819556  0.169954883425
CC312C OG2N1  1  0.320723538531  0.144938011577
CC312C OG2P1  1  0.320723538531  0.144938011577
CC312C OG2R50  1  0.320723538531  0.144938011577
CC312C OG3R60  1  0.316269044940  0.132309697301
CC312C OG301  1  0.316269044940  0.132309697301
CC312C OG302  1  0.316269044940  0.132309697301
CC312C OG303  1  0.316269044940  0.132309697301
CC312C OG304  1  0.316269044940  0.132309697301
CC312C OG311  1  0.326514380198  0.183381431383
CC312C OG312  1  0.325178032121  0.144938011577
CC312C OG3C31  1  0.316269044940  0.132309697301
CC312C OG3C51  1  0.316269044940  0.132309697301
CC312C OG3C61  1  0.316269044940  0.132309697301
CC312C OGTIP3  1  0.326799467788  0.163176000000
CC312C SG2D1  1  0.351904993665  0.314496560236
CC312C SG2R50  1  0.347450500075  0.280671252536
CC312C SG311  1  0.347450500075  0.280671252536
CC312C SG301  1  0.345223253279  0.257919081884
CC312C SG302  1  0.365268474438  0.286840588481
CC312C SG3O1  1  0.356359487256  0.286840588481
CC312C SG3O2  1  0.347450500075  0.247528778125
CC312C SG3O3  1  0.347450500075  0.247528778125
CC312C  FGA1  1  0.314487247504  0.153729976257
CC312C  FGA2  1  0.314487247504  0.135577095411
CC312C  FGA3  1  0.311814551349  0.130309939452
CC312C  FGP1  1  0.311814551349  0.130309939452
CC312C  FGR1  1  0.320723538531  0.144938011577
CC312C CLGA1  1  0.339432411611  0.245040988571
CC312C CLGA3  1  0.339432411611  0.232955260941
CC312C BRGA1  1  0.344777803920  0.289876023155
CC312C BRGA2  1  0.351904993665  0.304599797767
CC312C BRGA3  1  0.347450500075  0.307459952514
CC312C   SOD  1  0.294954293108  0.090610410351
CC312C   CLA  1  0.371504765465  0.162045623205
CC312C   PG0  1  0.360813980847  0.320014464673
CC312C   PG1  1  0.360813980847  0.320014464673
CC312C   PG2  1  0.360813980847  0.320014464673
CC312C  ALG1  1  0.347450500075  0.337324864189
CC312C   LPH  1  0.169270756447  0.000000000000
CC312C CLGR1  1  0.334977918021  0.200657590935
CC312C BRGR1  1  0.345668702638  0.236682781799
CC312C  IGR1  1  0.368832069310  0.301712530731
CC312C SG2P1  1  0.355798221064  0.332305491450
CC312C OG2S1  1  0.318906105146  0.157831660601
CC312C SG2P2  1  0.352314807076  0.329421919951
CC312C SEGD1  1  0.363041227642  0.330244580395
CC312C BG201  1  0.396449929572  0.081561175077
CC312C CC301  1  0.338541512893  0.041840000000
CC312C CC3062  1  0.338541512893  0.041840000000
CC312C CC311  1  0.338541512893  0.041840000000
CC312C CC3161  1  0.338541512893  0.041840000000
CC312C CC3162  1  0.338541512893  0.041840000000
CC312C CC3163  1  0.338541512893  0.041840000000
CC312C CC321  1  0.338541512893  0.041840000000
CC312C CC3261  1  0.338541512893  0.041840000000
CC312C CC3263  1  0.338541512893  0.041840000000
CC312C CC331  1  0.338541512893  0.041840000000
CC312C CC2O1  1  0.347450500075  0.138767581228
CC312C CC2O2  1  0.347450500075  0.110698234855
CC312C CC2O3  1  0.347450500075  0.125520000000
CC312C CC2O4  1  0.329632525712  0.102486650838
CC312C CC2O5  1  0.320723538531  0.130979917850
CC312C OC2D1  1  0.293996576986  0.144938011577
CC312C OC2D2  1  0.320723538531  0.144938011577
CC312C OC2D3  1  0.293996576986  0.144938011577
CC312C OC2D4  1  0.293996576986  0.144938011577
CC312C OC3C61  1  0.316269044940  0.132309697301
CC312C OC311  1  0.326514380198  0.183381431383
CC312C NC2D1  1  0.307360057758  0.187114168357
CC312C  HCP1  1  0.189271432669  0.089736802707
CC312C  HCA1  1  0.288651184677  0.088756043175
CC312C  HCA2  1  0.288651184677  0.078275472531
CC312C  HCA3  1  0.288651184677  0.064818249282
CC312C CC312  1  0.338541512893  0.041840000000
CC312C CC322  1  0.338541512893  0.041840000000
CC312C  HCR1  1  0.240542653898  0.089736802707
CC312C HCA3M  1  0.288651184677  0.064818249282
CC312C CC321C  1  0.338541512893  0.041840000000
CC312C CC321D  1  0.338541512893  0.041840000000
CC312C CC311C  1  0.338541512893  0.041840000000
CC312C CC311D  1  0.338541512893  0.041840000000
CC312C OC301  1  0.316269044940  0.132309697301
CC312C OC302  1  0.316269044940  0.132309697301
CC312C HCP1M  1  0.189271432669  0.089736802707
CC312C OC311M  1  0.326514380198  0.183381431383
CC312C OC3C5M  1  0.316269044940  0.132309697301
CC312C CC322C  1  0.338541512893  0.041840000000
CC312C HCA2C2  1  0.285087589805  0.078275472531
CC312C CC312C  1  0.338541512893  0.041840000000
CC312C HCA1C2  1  0.288651184677  0.088756043175
CC312C OC3C51  1  0.316269044940  0.132309697301
CC312C CC3152  1  0.338541512893  0.041840000000
CC312C CC3051  1  0.338541512893  0.041840000000
CC312C CC3251  1  0.338541512893  0.041840000000
CC312C CC3151  1  0.338541512893  0.041840000000
CC312C CC3153  1  0.338541512893  0.041840000000
CC312C OC2DP  1  0.320723538531  0.144938011577
CC312C OC312  1  0.326959829558  0.163176000000
CC312C OC30P  1  0.326959829558  0.163176000000
CC312C    PC  1  0.360813980847  0.320014464673
CC312C    SC  1  0.356359487256  0.286840588481
CC312C CC312D  1  0.338541512893  0.041840000000
CC312C OC303  1  0.316269044940  0.132309697301
CC312C NC311  1  0.347450500075  0.088756043175
CC312C   HN1  1  0.189271432669  0.089736802707
CC312C   HN2  1  0.189271432669  0.089736802707
CC312C   HN3  1  0.267269615442  0.089736802707
CC312C   HN4  1  0.189271432669  0.089736802707
CC312C   HN5  1  0.189271432669  0.089736802707
CC312C   HN6  1  0.286869387241  0.062058748940
CC312C   HN7  1  0.286869387241  0.062058748940
CC312C   HN8  1  0.288651184677  0.070011711020
CC312C   HN9  1  0.288651184677  0.064818249282
CC312C   NN1  1  0.334087019303  0.187114168357
CC312C   NN2  1  0.334087019303  0.187114168357
CC312C  NN2B  1  0.334087019303  0.187114168357
CC312C  NN2G  1  0.334087019303  0.187114168357
CC312C  NN2U  1  0.334087019303  0.187114168357
CC312C   NN3  1  0.334087019303  0.187114168357
CC312C  NN3A  1  0.334087019303  0.187114168357
CC312C  NN3G  1  0.334087019303  0.187114168357
CC312C   NN4  1  0.334087019303  0.187114168357
CC312C   NN6  1  0.334087019303  0.187114168357
CC312C   ON1  1  0.320723538531  0.144938011577
CC312C  ON1C  1  0.320723538531  0.144938011577
CC312C   ON2  1  0.326959829558  0.163176000000
CC312C   ON3  1  0.320723538531  0.144938011577
CC312C   ON4  1  0.326959829558  0.163176000000
CC312C   ON5  1  0.326959829558  0.163176000000
CC312C   ON6  1  0.326959829558  0.163176000000
CC312C  ON6B  1  0.326959829558  0.163176000000
CC312C   CN1  1  0.338541512893  0.132309697301
CC312C  CN1T  1  0.338541512893  0.132309697301
CC312C   CN2  1  0.338541512893  0.132309697301
CC312C   CN3  1  0.338541512893  0.125520000000
CC312C  CN3T  1  0.338541512893  0.125520000000
CC312C   CN4  1  0.338541512893  0.114583559030
CC312C   CN5  1  0.338541512893  0.114583559030
CC312C  CN5G  1  0.338541512893  0.114583559030
CC312C   CN7  1  0.338541512893  0.041840000000
CC312C  CN7B  1  0.338541512893  0.041840000000
CC312C   CN8  1  0.338541512893  0.041840000000
CC312C  CN8B  1  0.338541512893  0.041840000000
CC312C   CN9  1  0.338541512893  0.041840000000
CC312C     P  1  0.360813980847  0.320014464673
CC312C    P2  1  0.360813980847  0.320014464673
CC312C    P3  1  0.360813980847  0.320014464673
CC312C    P4  1  0.360813980847  0.320014464673
CC312C   HOL  1  0.189271432669  0.089736802707
CC312C  HAL1  1  0.286869387241  0.062058748940
CC312C  HAL2  1  0.288651184677  0.070011711020
CC312C  HAL3  1  0.288651184677  0.064818249282
CC312C   HBL  1  0.286869387241  0.062058748940
CC312C   HCL  1  0.189271432669  0.089736802707
CC312C    HL  1  0.231633666716  0.089736802707
CC312C  HEL1  1  0.280633096214  0.073666921749
CC312C  HEL2  1  0.281523994932  0.067464972838
CC312C    CL  1  0.347450500075  0.110698234855
CC312C   CCL  1  0.347450500075  0.110698234855
CC312C  CTL1  1  0.338541512893  0.041840000000
CC312C  CTL2  1  0.338541512893  0.041840000000
CC312C  CTL3  1  0.338541512893  0.041840000000
CC312C  CTL5  1  0.338541512893  0.041840000000
CC312C  CEL1  1  0.355468588538  0.109105371453
CC312C  CEL2  1  0.354577689820  0.105847757841
CC312C  CRL1  1  0.338541512893  0.041840000000
CC312C  CRL2  1  0.338541512893  0.041840000000
CC312C   OBL  1  0.293996576986  0.144938011577
CC312C   OCL  1  0.320723538531  0.144938011577
CC312C   O2L  1  0.320723538531  0.144938011577
CC312C   OHL  1  0.326959829558  0.163176000000
CC312C   OSL  1  0.316269044940  0.132309697301
CC312C  OSLP  1  0.316269044940  0.132309697301
CC312C  NH3L  1  0.334087019303  0.187114168357
CC312C   NTL  1  0.334087019303  0.187114168357
CC312C    SL  1  0.356359487256  0.286840588481
CC312C    PL  1  0.360813980847  0.320014464673
CC312C HCA1A  1  0.288651184677  0.088756043175
CC312C HCA2A  1  0.288651184677  0.078275472531
CC312C HCA3A  1  0.288651184677  0.064818249282
CC312C CC30A  1  0.338541512893  0.041840000000
CC312C CC31A  1  0.338541512893  0.041840000000
CC312C CC32A  1  0.338541512893  0.041840000000
CC312C CC33A  1  0.338541512893  0.041840000000
CC312C CC326A  1  0.338541512893  0.041840000000
CC312C HCA25A  1  0.285087589805  0.078275472531
CC312C CC325A  1  0.338541512893  0.041840000000
CC312C CC325B  1  0.338541512893  0.041840000000
CC312C OC305A  1  0.316269044940  0.132309697301
CC312C OC30A  1  0.316269044940  0.132309697301
CC312C  HSIO  1  0.189271432669  0.089736802707
CC312C  HSIA  1  0.286869387241  0.062058748940
CC312C   HAL  1  0.286869387241  0.062058748940
CC312C    AL  1  0.365268474438  0.337324864189
CC312C    SI  1  0.365268474438  0.324091246411
CC312C  SIH3  1  0.365268474438  0.324091246411
CC312C  OSIH  1  0.326959829558  0.163176000000
CC312C  OSIE  1  0.326959829558  0.163176000000
CC312C  OSIA  1  0.326959829558  0.163176000000
CC312C   OAL  1  0.326959829558  0.163176000000
CC312C    HT  1  0.189271432669  0.089736802707
CC312C    OT  1  0.326799467788  0.163176000000
CC312C   DUM  1  0.169270756447  0.000000000000
CC312C    CM  1  0.356359487256  0.138767581228
CC312C   CPA  1  0.329632525712  0.125520000000
CC312C   CPB  1  0.329632525712  0.125520000000
CC312C   CPM  1  0.329632525712  0.125520000000
CC312C   CST  1  0.308518226092  0.100764063435
CC312C  CT1X  1  0.338541512893  0.041840000000
CC312C  CT2X  1  0.338541512893  0.041840000000
CC312C  CT3X  1  0.338541512893  0.041840000000
CC312C    HB  1  0.286869387241  0.062058748940
CC312C   NPH  1  0.334087019303  0.187114168357
CC312C    OM  1  0.320723538531  0.144938011577
CC312C   OST  1  0.320010819556  0.169954883425
CC312C   POT  1  0.326403017859  0.123410269913
CC312C   CAL  1  0.291056611216  0.144938011577
CC312C    MG  1  0.274842254546  0.051243325419
CC312C   CES  1  0.356359487256  0.182376331798
CC312C    ZN  1  0.266378716724  0.209200000000
CC312C    FE  1  0.227179173126  0.000000000000
CC312C    HE  1  0.301123766731  0.061020452073
CC312C    NE  1  0.305578260322  0.122698965603
CC312C  CLAL  1  0.339272049842  0.072469005789
CC312C    AG  1  0.300901042052  0.893457908130
CC312C    AU  1  0.300722862308  0.962320000000
CC312C    CU  1  0.285800308779  0.908997471504
CC312C    NI  1  0.282949432881  0.994525446633
CC312C    PB  1  0.328073452955  0.716185437439
CC312C    PD  1  0.294842930769  1.037598257516
CC312C    PT  1  0.296001099102  1.168527606863
CC312C   CAP  1  0.346773417049  0.110698234855
CC312C    FA  1  0.320723538531  0.144938011577
CC312C    CN  1  0.325178032121  0.187114168357
CC312C    NC  1  0.334087019303  0.324091246411
CC312C   OCA  1  0.293996576986  0.144938011577
CC312C   COA  1  0.347450500075  0.138767581228
CC312C   CF1  1  0.338541512893  0.102486650838
CC312C   CF2  1  0.351904993665  0.085746484010
CC312C   CF3  1  0.374177461619  0.059170695450
CC312C   HF1  1  0.286869387241  0.070011711020
CC312C   HF2  1  0.285087589805  0.072469005789
CC312C    F1  1  0.314487247504  0.153729976257
CC312C    F2  1  0.314487247504  0.135577095411
CC312C    F3  1  0.311814551349  0.130309939452
CC312C    OX  1  0.320723538531  0.144938011577
CC312C    HX  1  0.189271432669  0.089736802707
CC312C  HPER  1  0.189271432669  0.089736802707
CC312C  OPER  1  0.318427692534  0.188901923946
CC312C   LIT  1  0.284864865125  0.020196198771
CC312C   RUB  1  0.338541512893  0.162045623205
CC312C   BAR  1  0.337650614175  0.162045623205
CC312C   CAD  1  0.290165712498  0.144938011577
CC312C  ON2B  1  0.326959829558  0.163176000000
CC312C    SP  1  0.365268474438  0.280671252536
CC312C   HNP  1  0.290272620344  0.072469005789
CC312C  HNE1  1  0.280633096214  0.073666921749
CC312C  HNE2  1  0.281523994932  0.067464972838
CC312C  CN3D  1  0.338541512893  0.125520000000
CC312C  CNE1  1  0.355468588538  0.109105371453
CC312C  CNE2  1  0.354577689820  0.105847757841
CC312C   CNA  1  0.346773417049  0.110698234855
CC312C  CNA2  1  0.338541512893  0.110698234855
CC312C   CNG  1  0.347450500075  0.138767581228
CC312C  NN1C  1  0.334087019303  0.187114168357
CC312C  NN2C  1  0.334087019303  0.187114168357
CC312C  NN3I  1  0.334087019303  0.187114168357
CC312C   NNG  1  0.334087019303  0.187114168357
CC312C   FNA  1  0.320723538531  0.144938011577
CC312C  ON2M  1  0.316269044940  0.132309697301
CC312C   CN6  1  0.338541512893  0.041840000000
CC312C  CN7E  1  0.338541512893  0.041840000000
CC312C  CT2P  1  0.338541512893  0.041840000000
CC312C  CTD1  1  0.338541512893  0.041840000000
CC312C  CPD1  1  0.338541512893  0.041840000000
CC312C  CC1A  1  0.355468588538  0.109105371453
CC312C  CC1B  1  0.355468588538  0.109105371453
CC312C   CC2  1  0.354577689820  0.105847757841
CC312C   NS1  1  0.334087019303  0.187114168357
CC312C   NS2  1  0.334087019303  0.187114168357
CC312C   NHL  1  0.307360057758  0.187114168357
CC312C  CTO1  1  0.338541512893  0.041840000000
CC312C  CEL3  1  0.355468588538  0.109105371453
CC312C  CTO2  1  0.338541512893  0.041840000000
CC312C  HN3B  1  0.249451641079  0.089736802707
CC312C  CN1A  1  0.347450500075  0.110698234855
CC312C  CN3A  1  0.329632525712  0.177512086349
CC312C  CN3B  1  0.329632525712  0.177512086349
CC312C  CN3C  1  0.329632525712  0.177512086349
CC3152     C  1  0.347450500075  0.138767581228
CC3152    CA  1  0.346773417049  0.110698234855
CC3152    CC  1  0.347450500075  0.110698234855
CC3152    CD  1  0.347450500075  0.110698234855
CC3152   CE1  1  0.355468588538  0.109105371453
CC3152   CE2  1  0.354577689820  0.105847757841
CC3152   CP1  1  0.338541512893  0.041840000000
CC3152   CP2  1  0.338541512893  0.041840000000
CC3152   CP3  1  0.338541512893  0.041840000000
CC3152  CPH1  1  0.329632525712  0.093557084179
CC3152  CPH2  1  0.329632525712  0.093557084179
CC3152    CS  1  0.365268474438  0.138767581228
CC3152   CPT  1  0.334977918021  0.131646486622
CC3152    CY  1  0.346559601357  0.113045454929
CC3152   CAI  1  0.346559601357  0.113045454929
CC3152    CT  1  0.338541512893  0.041840000000
CC3152   CT1  1  0.338541512893  0.041840000000
CC3152   CT2  1  0.338541512893  0.041840000000
CC3152  CT2A  1  0.338541512893  0.041840000000
CC3152   CT3  1  0.338541512893  0.041840000000
CC3152    C3  1  0.371950214824  0.059170695450
CC3152     H  1  0.189271432669  0.089736802707
CC3152    HA  1  0.286869387241  0.062058748940
CC3152   HB1  1  0.286869387241  0.062058748940
CC3152   HB2  1  0.288651184677  0.070011711020
CC3152   HE1  1  0.280633096214  0.073666921749
CC3152   HE2  1  0.281523994932  0.067464972838
CC3152    HC  1  0.189271432669  0.089736802707
CC3152    HP  1  0.290272620344  0.072469005789
CC3152   HR1  1  0.249451641079  0.089736802707
CC3152   HR2  1  0.231633666716  0.089736802707
CC3152   HR3  1  0.300054688270  0.036952087465
CC3152    HS  1  0.209361198763  0.132309697301
CC3152   HA1  1  0.288651184677  0.088756043175
CC3152   HA2  1  0.288651184677  0.077149148019
CC3152   HA3  1  0.288651184677  0.064818249282
CC3152     N  1  0.334087019303  0.004184000000
CC3152   NC2  1  0.334087019303  0.187114168357
CC3152   NH1  1  0.307360057758  0.187114168357
CC3152   NH2  1  0.334087019303  0.187114168357
CC3152   NH3  1  0.334087019303  0.187114168357
CC3152    NP  1  0.334087019303  0.187114168357
CC3152   NR1  1  0.334087019303  0.187114168357
CC3152   NR2  1  0.334087019303  0.187114168357
CC3152   NR3  1  0.334087019303  0.187114168357
CC3152    NY  1  0.334087019303  0.187114168357
CC3152     O  1  0.293996576986  0.144938011577
CC3152    OB  1  0.293996576986  0.144938011577
CC3152    OC  1  0.320723538531  0.144938011577
CC3152   OH1  1  0.326959829558  0.163176000000
CC3152    OS  1  0.326959829558  0.163176000000
CC3152     S  1  0.347450500075  0.280671252536
CC3152    SM  1  0.345223253279  0.257919081884
CC3152    SS  1  0.365268474438  0.286840588481
CC3152  HGA1  1  0.288651184677  0.088756043175
CC3152  HGA2  1  0.288651184677  0.078275472531
CC3152  HGA3  1  0.288651184677  0.064818249282
CC3152  HGA4  1  0.280633096214  0.073666921749
CC3152  HGA5  1  0.281523994932  0.067464972838
CC3152  HGA6  1  0.286869387241  0.070011711020
CC3152  HGA7  1  0.285087589805  0.072469005789
CC3152 HGAAM0  1  0.283305792369  0.070011711020
CC3152 HGAAM1  1  0.283305792369  0.070011711020
CC3152 HGAAM2  1  0.281523994932  0.083680000000
CC3152  HGP1  1  0.189271432669  0.089736802707
CC3152  HGP2  1  0.189271432669  0.089736802707
CC3152  HGP3  1  0.209361198763  0.132309697301
CC3152  HGP4  1  0.189271432669  0.089736802707
CC3152  HGP5  1  0.231633666716  0.089736802707
CC3152 HGPAM1  1  0.247224394284  0.039692909190
CC3152 HGPAM2  1  0.247224394284  0.041840000000
CC3152 HGPAM3  1  0.246778944925  0.045833423612
CC3152 HGR51  1  0.290272620344  0.072469005789
CC3152 HGR52  1  0.249451641079  0.089736802707
CC3152 HGR53  1  0.231633666716  0.089736802707
CC3152 HGR61  1  0.290272620344  0.072469005789
CC3152 HGR62  1  0.267269615442  0.089736802707
CC3152 HGR63  1  0.249451641079  0.089736802707
CC3152 HGR71  1  0.290272620344  0.072469005789
CC3152 HGTIP3  1  0.189271432669  0.089736802707
CC3152 CG1T1  1  0.333196120584  0.170981810495
CC3152 CG1T2  1  0.346782326036  0.134409982486
CC3152 CG1N1  1  0.335868816739  0.177512086349
CC3152 CG2D1  1  0.355468588538  0.109105371453
CC3152 CG2D2  1  0.354577689820  0.105847757841
CC3152 CG2D1O  1  0.355468588538  0.109105371453
CC3152 CG2D2O  1  0.355468588538  0.109105371453
CC3152 CG2DC1  1  0.355468588538  0.109105371453
CC3152 CG2DC2  1  0.355468588538  0.109105371453
CC3152 CG2DC3  1  0.354577689820  0.105847757841
CC3152 CG2N1  1  0.347450500075  0.138767581228
CC3152 CG2N2  1  0.347450500075  0.138767581228
CC3152 CG2O1  1  0.347450500075  0.138767581228
CC3152 CG2O2  1  0.320723538531  0.130979917850
CC3152 CG2O3  1  0.347450500075  0.110698234855
CC3152 CG2O4  1  0.329632525712  0.102486650838
CC3152 CG2O5  1  0.347450500075  0.125520000000
CC3152 CG2O6  1  0.347450500075  0.110698234855
CC3152 CG2O7  1  0.308518226092  0.100764063435
CC3152 CG2R51  1  0.356359487256  0.093557084179
CC3152 CG2R52  1  0.365268474438  0.059170695450
CC3152 CG2R53  1  0.365268474438  0.059170695450
CC3152 CG2R57  1  0.356359487256  0.093557084179
CC3152 CG25C1  1  0.355468588538  0.109105371453
CC3152 CG25C2  1  0.355468588538  0.109105371453
CC3152 CG251O  1  0.355468588538  0.109105371453
CC3152 CG252O  1  0.355468588538  0.109105371453
CC3152 CG2R61  1  0.346773417049  0.110698234855
CC3152 CG2R62  1  0.338541512893  0.125520000000
CC3152 CG2R63  1  0.338541512893  0.132309697301
CC3152 CG2R64  1  0.356359487256  0.083680000000
CC3152 CG2R66  1  0.338541512893  0.110698234855
CC3152 CG2R67  1  0.346773417049  0.110698234855
CC3152 CG2RC0  1  0.334977918021  0.131646486622
CC3152 CG2R71  1  0.346987232741  0.108300154755
CC3152 CG2RC7  1  0.334977918021  0.131646486622
CC3152 CG301  1  0.338541512893  0.041840000000
CC3152 CG302  1  0.374177461619  0.059170695450
CC3152 CG311  1  0.338541512893  0.041840000000
CC3152 CG312  1  0.351904993665  0.085746484010
CC3152 CG314  1  0.338541512893  0.041840000000
CC3152 CG321  1  0.338541512893  0.041840000000
CC3152 CG322  1  0.338541512893  0.102486650838
CC3152 CG323  1  0.365268474438  0.138767581228
CC3152 CG324  1  0.338541512893  0.041840000000
CC3152 CG331  1  0.338541512893  0.041840000000
CC3152 CG334  1  0.338541512893  0.041840000000
CC3152 CG3C50  1  0.338541512893  0.041840000000
CC3152 CG3C51  1  0.338541512893  0.041840000000
CC3152 CG3C52  1  0.338541512893  0.041840000000
CC3152 CG3C53  1  0.338541512893  0.041840000000
CC3152 CG3C54  1  0.338541512893  0.041840000000
CC3152 CG3C31  1  0.338541512893  0.041840000000
CC3152 CG3C41  1  0.338541512893  0.041840000000
CC3152 CG3RC1  1  0.338541512893  0.041840000000
CC3152 CG3AM0  1  0.344777803920  0.110698234855
CC3152 CG3AM1  1  0.345668702638  0.116852760686
CC3152 CG3AM2  1  0.346559601357  0.118341390899
CC3152 NG1T1  1  0.328741626994  0.177512086349
CC3152 NG2D1  1  0.334087019303  0.187114168357
CC3152 NG2S0  1  0.334087019303  0.004184000000
CC3152 NG2S1  1  0.307360057758  0.187114168357
CC3152 NG2S2  1  0.334087019303  0.187114168357
CC3152 NG2S3  1  0.334087019303  0.187114168357
CC3152 NG2O1  1  0.334087019303  0.187114168357
CC3152 NG2P1  1  0.334087019303  0.187114168357
CC3152 NG2R43  1  0.334087019303  0.187114168357
CC3152 NG2R50  1  0.334087019303  0.187114168357
CC3152 NG2R51  1  0.334087019303  0.187114168357
CC3152 NG2R52  1  0.334087019303  0.187114168357
CC3152 NG2R53  1  0.334087019303  0.187114168357
CC3152 NG2R57  1  0.334087019303  0.187114168357
CC3152 NG2R60  1  0.337650614175  0.102486650838
CC3152 NG2R61  1  0.334087019303  0.187114168357
CC3152 NG2R62  1  0.352795892384  0.093557084179
CC3152 NG2R67  1  0.334087019303  0.187114168357
CC3152 NG2RC0  1  0.334087019303  0.187114168357
CC3152 NG301  1  0.347450500075  0.078275472531
CC3152 NG311  1  0.347450500075  0.088756043175
CC3152 NG321  1  0.346559601357  0.102486650838
CC3152 NG331  1  0.345668702638  0.110698234855
CC3152 NG3C51  1  0.334087019303  0.187114168357
CC3152 NG3N1  1  0.351904993665  0.102486650838
CC3152 NG3P0  1  0.334087019303  0.187114168357
CC3152 NG3P1  1  0.334087019303  0.187114168357
CC3152 NG3P2  1  0.334087019303  0.187114168357
CC3152 NG3P3  1  0.334087019303  0.187114168357
CC3152 OG2D1  1  0.293996576986  0.144938011577
CC3152 OG2D2  1  0.320723538531  0.144938011577
CC3152 OG2D3  1  0.293996576986  0.144938011577
CC3152 OG2D4  1  0.320723538531  0.144938011577
CC3152 OG2D5  1  0.320010819556  0.169954883425
CC3152 OG2N1  1  0.320723538531  0.144938011577
CC3152 OG2P1  1  0.320723538531  0.144938011577
CC3152 OG2R50  1  0.320723538531  0.144938011577
CC3152 OG3R60  1  0.316269044940  0.132309697301
CC3152 OG301  1  0.316269044940  0.132309697301
CC3152 OG302  1  0.316269044940  0.132309697301
CC3152 OG303  1  0.316269044940  0.132309697301
CC3152 OG304  1  0.316269044940  0.132309697301
CC3152 OG311  1  0.326514380198  0.183381431383
CC3152 OG312  1  0.325178032121  0.144938011577
CC3152 OG3C31  1  0.316269044940  0.132309697301
CC3152 OG3C51  1  0.316269044940  0.132309697301
CC3152 OG3C61  1  0.316269044940  0.132309697301
CC3152 OGTIP3  1  0.326799467788  0.163176000000
CC3152 SG2D1  1  0.351904993665  0.314496560236
CC3152 SG2R50  1  0.347450500075  0.280671252536
CC3152 SG311  1  0.347450500075  0.280671252536
CC3152 SG301  1  0.345223253279  0.257919081884
CC3152 SG302  1  0.365268474438  0.286840588481
CC3152 SG3O1  1  0.356359487256  0.286840588481
CC3152 SG3O2  1  0.347450500075  0.247528778125
CC3152 SG3O3  1  0.347450500075  0.247528778125
CC3152  FGA1  1  0.314487247504  0.153729976257
CC3152  FGA2  1  0.314487247504  0.135577095411
CC3152  FGA3  1  0.311814551349  0.130309939452
CC3152  FGP1  1  0.311814551349  0.130309939452
CC3152  FGR1  1  0.320723538531  0.144938011577
CC3152 CLGA1  1  0.339432411611  0.245040988571
CC3152 CLGA3  1  0.339432411611  0.232955260941
CC3152 BRGA1  1  0.344777803920  0.289876023155
CC3152 BRGA2  1  0.351904993665  0.304599797767
CC3152 BRGA3  1  0.347450500075  0.307459952514
CC3152   SOD  1  0.294954293108  0.090610410351
CC3152   CLA  1  0.371504765465  0.162045623205
CC3152   PG0  1  0.360813980847  0.320014464673
CC3152   PG1  1  0.360813980847  0.320014464673
CC3152   PG2  1  0.360813980847  0.320014464673
CC3152  ALG1  1  0.347450500075  0.337324864189
CC3152   LPH  1  0.169270756447  0.000000000000
CC3152 CLGR1  1  0.334977918021  0.200657590935
CC3152 BRGR1  1  0.345668702638  0.236682781799
CC3152  IGR1  1  0.368832069310  0.301712530731
CC3152 SG2P1  1  0.355798221064  0.332305491450
CC3152 OG2S1  1  0.318906105146  0.157831660601
CC3152 SG2P2  1  0.352314807076  0.329421919951
CC3152 SEGD1  1  0.363041227642  0.330244580395
CC3152 BG201  1  0.396449929572  0.081561175077
CC3152 CC301  1  0.338541512893  0.041840000000
CC3152 CC3062  1  0.338541512893  0.041840000000
CC3152 CC311  1  0.338541512893  0.041840000000
CC3152 CC3161  1  0.338541512893  0.041840000000
CC3152 CC3162  1  0.338541512893  0.041840000000
CC3152 CC3163  1  0.338541512893  0.041840000000
CC3152 CC321  1  0.338541512893  0.041840000000
CC3152 CC3261  1  0.338541512893  0.041840000000
CC3152 CC3263  1  0.338541512893  0.041840000000
CC3152 CC331  1  0.338541512893  0.041840000000
CC3152 CC2O1  1  0.347450500075  0.138767581228
CC3152 CC2O2  1  0.347450500075  0.110698234855
CC3152 CC2O3  1  0.347450500075  0.125520000000
CC3152 CC2O4  1  0.329632525712  0.102486650838
CC3152 CC2O5  1  0.320723538531  0.130979917850
CC3152 OC2D1  1  0.293996576986  0.144938011577
CC3152 OC2D2  1  0.320723538531  0.144938011577
CC3152 OC2D3  1  0.293996576986  0.144938011577
CC3152 OC2D4  1  0.293996576986  0.144938011577
CC3152 OC3C61  1  0.316269044940  0.132309697301
CC3152 OC311  1  0.326514380198  0.183381431383
CC3152 NC2D1  1  0.307360057758  0.187114168357
CC3152  HCP1  1  0.189271432669  0.089736802707
CC3152  HCA1  1  0.288651184677  0.088756043175
CC3152  HCA2  1  0.288651184677  0.078275472531
CC3152  HCA3  1  0.288651184677  0.064818249282
CC3152 CC312  1  0.338541512893  0.041840000000
CC3152 CC322  1  0.338541512893  0.041840000000
CC3152  HCR1  1  0.240542653898  0.089736802707
CC3152 HCA3M  1  0.288651184677  0.064818249282
CC3152 CC321C  1  0.338541512893  0.041840000000
CC3152 CC321D  1  0.338541512893  0.041840000000
CC3152 CC311C  1  0.338541512893  0.041840000000
CC3152 CC311D  1  0.338541512893  0.041840000000
CC3152 OC301  1  0.316269044940  0.132309697301
CC3152 OC302  1  0.316269044940  0.132309697301
CC3152 HCP1M  1  0.189271432669  0.089736802707
CC3152 OC311M  1  0.326514380198  0.183381431383
CC3152 OC3C5M  1  0.316269044940  0.132309697301
CC3152 CC322C  1  0.338541512893  0.041840000000
CC3152 HCA2C2  1  0.285087589805  0.078275472531
CC3152 CC312C  1  0.338541512893  0.041840000000
CC3152 HCA1C2  1  0.288651184677  0.088756043175
CC3152 OC3C51  1  0.316269044940  0.132309697301
CC3152 CC3152  1  0.338541512893  0.041840000000
CC3152 CC3051  1  0.338541512893  0.041840000000
CC3152 CC3251  1  0.338541512893  0.041840000000
CC3152 CC3151  1  0.338541512893  0.041840000000
CC3152 CC3153  1  0.338541512893  0.041840000000
CC3152 OC2DP  1  0.320723538531  0.144938011577
CC3152 OC312  1  0.326959829558  0.163176000000
CC3152 OC30P  1  0.326959829558  0.163176000000
CC3152    PC  1  0.360813980847  0.320014464673
CC3152    SC  1  0.356359487256  0.286840588481
CC3152 CC312D  1  0.338541512893  0.041840000000
CC3152 OC303  1  0.316269044940  0.132309697301
CC3152 NC311  1  0.347450500075  0.088756043175
CC3152   HN1  1  0.189271432669  0.089736802707
CC3152   HN2  1  0.189271432669  0.089736802707
CC3152   HN3  1  0.267269615442  0.089736802707
CC3152   HN4  1  0.189271432669  0.089736802707
CC3152   HN5  1  0.189271432669  0.089736802707
CC3152   HN6  1  0.286869387241  0.062058748940
CC3152   HN7  1  0.286869387241  0.062058748940
CC3152   HN8  1  0.288651184677  0.070011711020
CC3152   HN9  1  0.288651184677  0.064818249282
CC3152   NN1  1  0.334087019303  0.187114168357
CC3152   NN2  1  0.334087019303  0.187114168357
CC3152  NN2B  1  0.334087019303  0.187114168357
CC3152  NN2G  1  0.334087019303  0.187114168357
CC3152  NN2U  1  0.334087019303  0.187114168357
CC3152   NN3  1  0.334087019303  0.187114168357
CC3152  NN3A  1  0.334087019303  0.187114168357
CC3152  NN3G  1  0.334087019303  0.187114168357
CC3152   NN4  1  0.334087019303  0.187114168357
CC3152   NN6  1  0.334087019303  0.187114168357
CC3152   ON1  1  0.320723538531  0.144938011577
CC3152  ON1C  1  0.320723538531  0.144938011577
CC3152   ON2  1  0.326959829558  0.163176000000
CC3152   ON3  1  0.320723538531  0.144938011577
CC3152   ON4  1  0.326959829558  0.163176000000
CC3152   ON5  1  0.326959829558  0.163176000000
CC3152   ON6  1  0.326959829558  0.163176000000
CC3152  ON6B  1  0.326959829558  0.163176000000
CC3152   CN1  1  0.338541512893  0.132309697301
CC3152  CN1T  1  0.338541512893  0.132309697301
CC3152   CN2  1  0.338541512893  0.132309697301
CC3152   CN3  1  0.338541512893  0.125520000000
CC3152  CN3T  1  0.338541512893  0.125520000000
CC3152   CN4  1  0.338541512893  0.114583559030
CC3152   CN5  1  0.338541512893  0.114583559030
CC3152  CN5G  1  0.338541512893  0.114583559030
CC3152   CN7  1  0.338541512893  0.041840000000
CC3152  CN7B  1  0.338541512893  0.041840000000
CC3152   CN8  1  0.338541512893  0.041840000000
CC3152  CN8B  1  0.338541512893  0.041840000000
CC3152   CN9  1  0.338541512893  0.041840000000
CC3152     P  1  0.360813980847  0.320014464673
CC3152    P2  1  0.360813980847  0.320014464673
CC3152    P3  1  0.360813980847  0.320014464673
CC3152    P4  1  0.360813980847  0.320014464673
CC3152   HOL  1  0.189271432669  0.089736802707
CC3152  HAL1  1  0.286869387241  0.062058748940
CC3152  HAL2  1  0.288651184677  0.070011711020
CC3152  HAL3  1  0.288651184677  0.064818249282
CC3152   HBL  1  0.286869387241  0.062058748940
CC3152   HCL  1  0.189271432669  0.089736802707
CC3152    HL  1  0.231633666716  0.089736802707
CC3152  HEL1  1  0.280633096214  0.073666921749
CC3152  HEL2  1  0.281523994932  0.067464972838
CC3152    CL  1  0.347450500075  0.110698234855
CC3152   CCL  1  0.347450500075  0.110698234855
CC3152  CTL1  1  0.338541512893  0.041840000000
CC3152  CTL2  1  0.338541512893  0.041840000000
CC3152  CTL3  1  0.338541512893  0.041840000000
CC3152  CTL5  1  0.338541512893  0.041840000000
CC3152  CEL1  1  0.355468588538  0.109105371453
CC3152  CEL2  1  0.354577689820  0.105847757841
CC3152  CRL1  1  0.338541512893  0.041840000000
CC3152  CRL2  1  0.338541512893  0.041840000000
CC3152   OBL  1  0.293996576986  0.144938011577
CC3152   OCL  1  0.320723538531  0.144938011577
CC3152   O2L  1  0.320723538531  0.144938011577
CC3152   OHL  1  0.326959829558  0.163176000000
CC3152   OSL  1  0.316269044940  0.132309697301
CC3152  OSLP  1  0.316269044940  0.132309697301
CC3152  NH3L  1  0.334087019303  0.187114168357
CC3152   NTL  1  0.334087019303  0.187114168357
CC3152    SL  1  0.356359487256  0.286840588481
CC3152    PL  1  0.360813980847  0.320014464673
CC3152 HCA1A  1  0.288651184677  0.088756043175
CC3152 HCA2A  1  0.288651184677  0.078275472531
CC3152 HCA3A  1  0.288651184677  0.064818249282
CC3152 CC30A  1  0.338541512893  0.041840000000
CC3152 CC31A  1  0.338541512893  0.041840000000
CC3152 CC32A  1  0.338541512893  0.041840000000
CC3152 CC33A  1  0.338541512893  0.041840000000
CC3152 CC326A  1  0.338541512893  0.041840000000
CC3152 HCA25A  1  0.285087589805  0.078275472531
CC3152 CC325A  1  0.338541512893  0.041840000000
CC3152 CC325B  1  0.338541512893  0.041840000000
CC3152 OC305A  1  0.316269044940  0.132309697301
CC3152 OC30A  1  0.316269044940  0.132309697301
CC3152  HSIO  1  0.189271432669  0.089736802707
CC3152  HSIA  1  0.286869387241  0.062058748940
CC3152   HAL  1  0.286869387241  0.062058748940
CC3152    AL  1  0.365268474438  0.337324864189
CC3152    SI  1  0.365268474438  0.324091246411
CC3152  SIH3  1  0.365268474438  0.324091246411
CC3152  OSIH  1  0.326959829558  0.163176000000
CC3152  OSIE  1  0.326959829558  0.163176000000
CC3152  OSIA  1  0.326959829558  0.163176000000
CC3152   OAL  1  0.326959829558  0.163176000000
CC3152    HT  1  0.189271432669  0.089736802707
CC3152    OT  1  0.326799467788  0.163176000000
CC3152   DUM  1  0.169270756447  0.000000000000
CC3152    CM  1  0.356359487256  0.138767581228
CC3152   CPA  1  0.329632525712  0.125520000000
CC3152   CPB  1  0.329632525712  0.125520000000
CC3152   CPM  1  0.329632525712  0.125520000000
CC3152   CST  1  0.308518226092  0.100764063435
CC3152  CT1X  1  0.338541512893  0.041840000000
CC3152  CT2X  1  0.338541512893  0.041840000000
CC3152  CT3X  1  0.338541512893  0.041840000000
CC3152    HB  1  0.286869387241  0.062058748940
CC3152   NPH  1  0.334087019303  0.187114168357
CC3152    OM  1  0.320723538531  0.144938011577
CC3152   OST  1  0.320010819556  0.169954883425
CC3152   POT  1  0.326403017859  0.123410269913
CC3152   CAL  1  0.291056611216  0.144938011577
CC3152    MG  1  0.274842254546  0.051243325419
CC3152   CES  1  0.356359487256  0.182376331798
CC3152    ZN  1  0.266378716724  0.209200000000
CC3152    FE  1  0.227179173126  0.000000000000
CC3152    HE  1  0.301123766731  0.061020452073
CC3152    NE  1  0.305578260322  0.122698965603
CC3152  CLAL  1  0.339272049842  0.072469005789
CC3152    AG  1  0.300901042052  0.893457908130
CC3152    AU  1  0.300722862308  0.962320000000
CC3152    CU  1  0.285800308779  0.908997471504
CC3152    NI  1  0.282949432881  0.994525446633
CC3152    PB  1  0.328073452955  0.716185437439
CC3152    PD  1  0.294842930769  1.037598257516
CC3152    PT  1  0.296001099102  1.168527606863
CC3152   CAP  1  0.346773417049  0.110698234855
CC3152    FA  1  0.320723538531  0.144938011577
CC3152    CN  1  0.325178032121  0.187114168357
CC3152    NC  1  0.334087019303  0.324091246411
CC3152   OCA  1  0.293996576986  0.144938011577
CC3152   COA  1  0.347450500075  0.138767581228
CC3152   CF1  1  0.338541512893  0.102486650838
CC3152   CF2  1  0.351904993665  0.085746484010
CC3152   CF3  1  0.374177461619  0.059170695450
CC3152   HF1  1  0.286869387241  0.070011711020
CC3152   HF2  1  0.285087589805  0.072469005789
CC3152    F1  1  0.314487247504  0.153729976257
CC3152    F2  1  0.314487247504  0.135577095411
CC3152    F3  1  0.311814551349  0.130309939452
CC3152    OX  1  0.320723538531  0.144938011577
CC3152    HX  1  0.189271432669  0.089736802707
CC3152  HPER  1  0.189271432669  0.089736802707
CC3152  OPER  1  0.318427692534  0.188901923946
CC3152   LIT  1  0.284864865125  0.020196198771
CC3152   RUB  1  0.338541512893  0.162045623205
CC3152   BAR  1  0.337650614175  0.162045623205
CC3152   CAD  1  0.290165712498  0.144938011577
CC3152  ON2B  1  0.326959829558  0.163176000000
CC3152    SP  1  0.365268474438  0.280671252536
CC3152   HNP  1  0.290272620344  0.072469005789
CC3152  HNE1  1  0.280633096214  0.073666921749
CC3152  HNE2  1  0.281523994932  0.067464972838
CC3152  CN3D  1  0.338541512893  0.125520000000
CC3152  CNE1  1  0.355468588538  0.109105371453
CC3152  CNE2  1  0.354577689820  0.105847757841
CC3152   CNA  1  0.346773417049  0.110698234855
CC3152  CNA2  1  0.338541512893  0.110698234855
CC3152   CNG  1  0.347450500075  0.138767581228
CC3152  NN1C  1  0.334087019303  0.187114168357
CC3152  NN2C  1  0.334087019303  0.187114168357
CC3152  NN3I  1  0.334087019303  0.187114168357
CC3152   NNG  1  0.334087019303  0.187114168357
CC3152   FNA  1  0.320723538531  0.144938011577
CC3152  ON2M  1  0.316269044940  0.132309697301
CC3152   CN6  1  0.338541512893  0.041840000000
CC3152  CN7E  1  0.338541512893  0.041840000000
CC3152  CT2P  1  0.338541512893  0.041840000000
CC3152  CTD1  1  0.338541512893  0.041840000000
CC3152  CPD1  1  0.338541512893  0.041840000000
CC3152  CC1A  1  0.355468588538  0.109105371453
CC3152  CC1B  1  0.355468588538  0.109105371453
CC3152   CC2  1  0.354577689820  0.105847757841
CC3152   NS1  1  0.334087019303  0.187114168357
CC3152   NS2  1  0.334087019303  0.187114168357
CC3152   NHL  1  0.307360057758  0.187114168357
CC3152  CTO1  1  0.338541512893  0.041840000000
CC3152  CEL3  1  0.355468588538  0.109105371453
CC3152  CTO2  1  0.338541512893  0.041840000000
CC3152  HN3B  1  0.249451641079  0.089736802707
CC3152  CN1A  1  0.347450500075  0.110698234855
CC3152  CN3A  1  0.329632525712  0.177512086349
CC3152  CN3B  1  0.329632525712  0.177512086349
CC3152  CN3C  1  0.329632525712  0.177512086349
CC3051     C  1  0.347450500075  0.138767581228
CC3051    CA  1  0.346773417049  0.110698234855
CC3051    CC  1  0.347450500075  0.110698234855
CC3051    CD  1  0.347450500075  0.110698234855
CC3051   CE1  1  0.355468588538  0.109105371453
CC3051   CE2  1  0.354577689820  0.105847757841
CC3051   CP1  1  0.338541512893  0.041840000000
CC3051   CP2  1  0.338541512893  0.041840000000
CC3051   CP3  1  0.338541512893  0.041840000000
CC3051  CPH1  1  0.329632525712  0.093557084179
CC3051  CPH2  1  0.329632525712  0.093557084179
CC3051    CS  1  0.365268474438  0.138767581228
CC3051   CPT  1  0.334977918021  0.131646486622
CC3051    CY  1  0.346559601357  0.113045454929
CC3051   CAI  1  0.346559601357  0.113045454929
CC3051    CT  1  0.338541512893  0.041840000000
CC3051   CT1  1  0.338541512893  0.041840000000
CC3051   CT2  1  0.338541512893  0.041840000000
CC3051  CT2A  1  0.338541512893  0.041840000000
CC3051   CT3  1  0.338541512893  0.041840000000
CC3051    C3  1  0.371950214824  0.059170695450
CC3051     H  1  0.189271432669  0.089736802707
CC3051    HA  1  0.286869387241  0.062058748940
CC3051   HB1  1  0.286869387241  0.062058748940
CC3051   HB2  1  0.288651184677  0.070011711020
CC3051   HE1  1  0.280633096214  0.073666921749
CC3051   HE2  1  0.281523994932  0.067464972838
CC3051    HC  1  0.189271432669  0.089736802707
CC3051    HP  1  0.290272620344  0.072469005789
CC3051   HR1  1  0.249451641079  0.089736802707
CC3051   HR2  1  0.231633666716  0.089736802707
CC3051   HR3  1  0.300054688270  0.036952087465
CC3051    HS  1  0.209361198763  0.132309697301
CC3051   HA1  1  0.288651184677  0.088756043175
CC3051   HA2  1  0.288651184677  0.077149148019
CC3051   HA3  1  0.288651184677  0.064818249282
CC3051     N  1  0.334087019303  0.004184000000
CC3051   NC2  1  0.334087019303  0.187114168357
CC3051   NH1  1  0.307360057758  0.187114168357
CC3051   NH2  1  0.334087019303  0.187114168357
CC3051   NH3  1  0.334087019303  0.187114168357
CC3051    NP  1  0.334087019303  0.187114168357
CC3051   NR1  1  0.334087019303  0.187114168357
CC3051   NR2  1  0.334087019303  0.187114168357
CC3051   NR3  1  0.334087019303  0.187114168357
CC3051    NY  1  0.334087019303  0.187114168357
CC3051     O  1  0.293996576986  0.144938011577
CC3051    OB  1  0.293996576986  0.144938011577
CC3051    OC  1  0.320723538531  0.144938011577
CC3051   OH1  1  0.326959829558  0.163176000000
CC3051    OS  1  0.326959829558  0.163176000000
CC3051     S  1  0.347450500075  0.280671252536
CC3051    SM  1  0.345223253279  0.257919081884
CC3051    SS  1  0.365268474438  0.286840588481
CC3051  HGA1  1  0.288651184677  0.088756043175
CC3051  HGA2  1  0.288651184677  0.078275472531
CC3051  HGA3  1  0.288651184677  0.064818249282
CC3051  HGA4  1  0.280633096214  0.073666921749
CC3051  HGA5  1  0.281523994932  0.067464972838
CC3051  HGA6  1  0.286869387241  0.070011711020
CC3051  HGA7  1  0.285087589805  0.072469005789
CC3051 HGAAM0  1  0.283305792369  0.070011711020
CC3051 HGAAM1  1  0.283305792369  0.070011711020
CC3051 HGAAM2  1  0.281523994932  0.083680000000
CC3051  HGP1  1  0.189271432669  0.089736802707
CC3051  HGP2  1  0.189271432669  0.089736802707
CC3051  HGP3  1  0.209361198763  0.132309697301
CC3051  HGP4  1  0.189271432669  0.089736802707
CC3051  HGP5  1  0.231633666716  0.089736802707
CC3051 HGPAM1  1  0.247224394284  0.039692909190
CC3051 HGPAM2  1  0.247224394284  0.041840000000
CC3051 HGPAM3  1  0.246778944925  0.045833423612
CC3051 HGR51  1  0.290272620344  0.072469005789
CC3051 HGR52  1  0.249451641079  0.089736802707
CC3051 HGR53  1  0.231633666716  0.089736802707
CC3051 HGR61  1  0.290272620344  0.072469005789
CC3051 HGR62  1  0.267269615442  0.089736802707
CC3051 HGR63  1  0.249451641079  0.089736802707
CC3051 HGR71  1  0.290272620344  0.072469005789
CC3051 HGTIP3  1  0.189271432669  0.089736802707
CC3051 CG1T1  1  0.333196120584  0.170981810495
CC3051 CG1T2  1  0.346782326036  0.134409982486
CC3051 CG1N1  1  0.335868816739  0.177512086349
CC3051 CG2D1  1  0.355468588538  0.109105371453
CC3051 CG2D2  1  0.354577689820  0.105847757841
CC3051 CG2D1O  1  0.355468588538  0.109105371453
CC3051 CG2D2O  1  0.355468588538  0.109105371453
CC3051 CG2DC1  1  0.355468588538  0.109105371453
CC3051 CG2DC2  1  0.355468588538  0.109105371453
CC3051 CG2DC3  1  0.354577689820  0.105847757841
CC3051 CG2N1  1  0.347450500075  0.138767581228
CC3051 CG2N2  1  0.347450500075  0.138767581228
CC3051 CG2O1  1  0.347450500075  0.138767581228
CC3051 CG2O2  1  0.320723538531  0.130979917850
CC3051 CG2O3  1  0.347450500075  0.110698234855
CC3051 CG2O4  1  0.329632525712  0.102486650838
CC3051 CG2O5  1  0.347450500075  0.125520000000
CC3051 CG2O6  1  0.347450500075  0.110698234855
CC3051 CG2O7  1  0.308518226092  0.100764063435
CC3051 CG2R51  1  0.356359487256  0.093557084179
CC3051 CG2R52  1  0.365268474438  0.059170695450
CC3051 CG2R53  1  0.365268474438  0.059170695450
CC3051 CG2R57  1  0.356359487256  0.093557084179
CC3051 CG25C1  1  0.355468588538  0.109105371453
CC3051 CG25C2  1  0.355468588538  0.109105371453
CC3051 CG251O  1  0.355468588538  0.109105371453
CC3051 CG252O  1  0.355468588538  0.109105371453
CC3051 CG2R61  1  0.346773417049  0.110698234855
CC3051 CG2R62  1  0.338541512893  0.125520000000
CC3051 CG2R63  1  0.338541512893  0.132309697301
CC3051 CG2R64  1  0.356359487256  0.083680000000
CC3051 CG2R66  1  0.338541512893  0.110698234855
CC3051 CG2R67  1  0.346773417049  0.110698234855
CC3051 CG2RC0  1  0.334977918021  0.131646486622
CC3051 CG2R71  1  0.346987232741  0.108300154755
CC3051 CG2RC7  1  0.334977918021  0.131646486622
CC3051 CG301  1  0.338541512893  0.041840000000
CC3051 CG302  1  0.374177461619  0.059170695450
CC3051 CG311  1  0.338541512893  0.041840000000
CC3051 CG312  1  0.351904993665  0.085746484010
CC3051 CG314  1  0.338541512893  0.041840000000
CC3051 CG321  1  0.338541512893  0.041840000000
CC3051 CG322  1  0.338541512893  0.102486650838
CC3051 CG323  1  0.365268474438  0.138767581228
CC3051 CG324  1  0.338541512893  0.041840000000
CC3051 CG331  1  0.338541512893  0.041840000000
CC3051 CG334  1  0.338541512893  0.041840000000
CC3051 CG3C50  1  0.338541512893  0.041840000000
CC3051 CG3C51  1  0.338541512893  0.041840000000
CC3051 CG3C52  1  0.338541512893  0.041840000000
CC3051 CG3C53  1  0.338541512893  0.041840000000
CC3051 CG3C54  1  0.338541512893  0.041840000000
CC3051 CG3C31  1  0.338541512893  0.041840000000
CC3051 CG3C41  1  0.338541512893  0.041840000000
CC3051 CG3RC1  1  0.338541512893  0.041840000000
CC3051 CG3AM0  1  0.344777803920  0.110698234855
CC3051 CG3AM1  1  0.345668702638  0.116852760686
CC3051 CG3AM2  1  0.346559601357  0.118341390899
CC3051 NG1T1  1  0.328741626994  0.177512086349
CC3051 NG2D1  1  0.334087019303  0.187114168357
CC3051 NG2S0  1  0.334087019303  0.004184000000
CC3051 NG2S1  1  0.307360057758  0.187114168357
CC3051 NG2S2  1  0.334087019303  0.187114168357
CC3051 NG2S3  1  0.334087019303  0.187114168357
CC3051 NG2O1  1  0.334087019303  0.187114168357
CC3051 NG2P1  1  0.334087019303  0.187114168357
CC3051 NG2R43  1  0.334087019303  0.187114168357
CC3051 NG2R50  1  0.334087019303  0.187114168357
CC3051 NG2R51  1  0.334087019303  0.187114168357
CC3051 NG2R52  1  0.334087019303  0.187114168357
CC3051 NG2R53  1  0.334087019303  0.187114168357
CC3051 NG2R57  1  0.334087019303  0.187114168357
CC3051 NG2R60  1  0.337650614175  0.102486650838
CC3051 NG2R61  1  0.334087019303  0.187114168357
CC3051 NG2R62  1  0.352795892384  0.093557084179
CC3051 NG2R67  1  0.334087019303  0.187114168357
CC3051 NG2RC0  1  0.334087019303  0.187114168357
CC3051 NG301  1  0.347450500075  0.078275472531
CC3051 NG311  1  0.347450500075  0.088756043175
CC3051 NG321  1  0.346559601357  0.102486650838
CC3051 NG331  1  0.345668702638  0.110698234855
CC3051 NG3C51  1  0.334087019303  0.187114168357
CC3051 NG3N1  1  0.351904993665  0.102486650838
CC3051 NG3P0  1  0.334087019303  0.187114168357
CC3051 NG3P1  1  0.334087019303  0.187114168357
CC3051 NG3P2  1  0.334087019303  0.187114168357
CC3051 NG3P3  1  0.334087019303  0.187114168357
CC3051 OG2D1  1  0.293996576986  0.144938011577
CC3051 OG2D2  1  0.320723538531  0.144938011577
CC3051 OG2D3  1  0.293996576986  0.144938011577
CC3051 OG2D4  1  0.320723538531  0.144938011577
CC3051 OG2D5  1  0.320010819556  0.169954883425
CC3051 OG2N1  1  0.320723538531  0.144938011577
CC3051 OG2P1  1  0.320723538531  0.144938011577
CC3051 OG2R50  1  0.320723538531  0.144938011577
CC3051 OG3R60  1  0.316269044940  0.132309697301
CC3051 OG301  1  0.316269044940  0.132309697301
CC3051 OG302  1  0.316269044940  0.132309697301
CC3051 OG303  1  0.316269044940  0.132309697301
CC3051 OG304  1  0.316269044940  0.132309697301
CC3051 OG311  1  0.326514380198  0.183381431383
CC3051 OG312  1  0.325178032121  0.144938011577
CC3051 OG3C31  1  0.316269044940  0.132309697301
CC3051 OG3C51  1  0.316269044940  0.132309697301
CC3051 OG3C61  1  0.316269044940  0.132309697301
CC3051 OGTIP3  1  0.326799467788  0.163176000000
CC3051 SG2D1  1  0.351904993665  0.314496560236
CC3051 SG2R50  1  0.347450500075  0.280671252536
CC3051 SG311  1  0.347450500075  0.280671252536
CC3051 SG301  1  0.345223253279  0.257919081884
CC3051 SG302  1  0.365268474438  0.286840588481
CC3051 SG3O1  1  0.356359487256  0.286840588481
CC3051 SG3O2  1  0.347450500075  0.247528778125
CC3051 SG3O3  1  0.347450500075  0.247528778125
CC3051  FGA1  1  0.314487247504  0.153729976257
CC3051  FGA2  1  0.314487247504  0.135577095411
CC3051  FGA3  1  0.311814551349  0.130309939452
CC3051  FGP1  1  0.311814551349  0.130309939452
CC3051  FGR1  1  0.320723538531  0.144938011577
CC3051 CLGA1  1  0.339432411611  0.245040988571
CC3051 CLGA3  1  0.339432411611  0.232955260941
CC3051 BRGA1  1  0.344777803920  0.289876023155
CC3051 BRGA2  1  0.351904993665  0.304599797767
CC3051 BRGA3  1  0.347450500075  0.307459952514
CC3051   SOD  1  0.294954293108  0.090610410351
CC3051   CLA  1  0.371504765465  0.162045623205
CC3051   PG0  1  0.360813980847  0.320014464673
CC3051   PG1  1  0.360813980847  0.320014464673
CC3051   PG2  1  0.360813980847  0.320014464673
CC3051  ALG1  1  0.347450500075  0.337324864189
CC3051   LPH  1  0.169270756447  0.000000000000
CC3051 CLGR1  1  0.334977918021  0.200657590935
CC3051 BRGR1  1  0.345668702638  0.236682781799
CC3051  IGR1  1  0.368832069310  0.301712530731
CC3051 SG2P1  1  0.355798221064  0.332305491450
CC3051 OG2S1  1  0.318906105146  0.157831660601
CC3051 SG2P2  1  0.352314807076  0.329421919951
CC3051 SEGD1  1  0.363041227642  0.330244580395
CC3051 BG201  1  0.396449929572  0.081561175077
CC3051 CC301  1  0.338541512893  0.041840000000
CC3051 CC3062  1  0.338541512893  0.041840000000
CC3051 CC311  1  0.338541512893  0.041840000000
CC3051 CC3161  1  0.338541512893  0.041840000000
CC3051 CC3162  1  0.338541512893  0.041840000000
CC3051 CC3163  1  0.338541512893  0.041840000000
CC3051 CC321  1  0.338541512893  0.041840000000
CC3051 CC3261  1  0.338541512893  0.041840000000
CC3051 CC3263  1  0.338541512893  0.041840000000
CC3051 CC331  1  0.338541512893  0.041840000000
CC3051 CC2O1  1  0.347450500075  0.138767581228
CC3051 CC2O2  1  0.347450500075  0.110698234855
CC3051 CC2O3  1  0.347450500075  0.125520000000
CC3051 CC2O4  1  0.329632525712  0.102486650838
CC3051 CC2O5  1  0.320723538531  0.130979917850
CC3051 OC2D1  1  0.293996576986  0.144938011577
CC3051 OC2D2  1  0.320723538531  0.144938011577
CC3051 OC2D3  1  0.293996576986  0.144938011577
CC3051 OC2D4  1  0.293996576986  0.144938011577
CC3051 OC3C61  1  0.316269044940  0.132309697301
CC3051 OC311  1  0.326514380198  0.183381431383
CC3051 NC2D1  1  0.307360057758  0.187114168357
CC3051  HCP1  1  0.189271432669  0.089736802707
CC3051  HCA1  1  0.288651184677  0.088756043175
CC3051  HCA2  1  0.288651184677  0.078275472531
CC3051  HCA3  1  0.288651184677  0.064818249282
CC3051 CC312  1  0.338541512893  0.041840000000
CC3051 CC322  1  0.338541512893  0.041840000000
CC3051  HCR1  1  0.240542653898  0.089736802707
CC3051 HCA3M  1  0.288651184677  0.064818249282
CC3051 CC321C  1  0.338541512893  0.041840000000
CC3051 CC321D  1  0.338541512893  0.041840000000
CC3051 CC311C  1  0.338541512893  0.041840000000
CC3051 CC311D  1  0.338541512893  0.041840000000
CC3051 OC301  1  0.316269044940  0.132309697301
CC3051 OC302  1  0.316269044940  0.132309697301
CC3051 HCP1M  1  0.189271432669  0.089736802707
CC3051 OC311M  1  0.326514380198  0.183381431383
CC3051 OC3C5M  1  0.316269044940  0.132309697301
CC3051 CC322C  1  0.338541512893  0.041840000000
CC3051 HCA2C2  1  0.285087589805  0.078275472531
CC3051 CC312C  1  0.338541512893  0.041840000000
CC3051 HCA1C2  1  0.288651184677  0.088756043175
CC3051 OC3C51  1  0.316269044940  0.132309697301
CC3051 CC3152  1  0.338541512893  0.041840000000
CC3051 CC3051  1  0.338541512893  0.041840000000
CC3051 CC3251  1  0.338541512893  0.041840000000
CC3051 CC3151  1  0.338541512893  0.041840000000
CC3051 CC3153  1  0.338541512893  0.041840000000
CC3051 OC2DP  1  0.320723538531  0.144938011577
CC3051 OC312  1  0.326959829558  0.163176000000
CC3051 OC30P  1  0.326959829558  0.163176000000
CC3051    PC  1  0.360813980847  0.320014464673
CC3051    SC  1  0.356359487256  0.286840588481
CC3051 CC312D  1  0.338541512893  0.041840000000
CC3051 OC303  1  0.316269044940  0.132309697301
CC3051 NC311  1  0.347450500075  0.088756043175
CC3051   HN1  1  0.189271432669  0.089736802707
CC3051   HN2  1  0.189271432669  0.089736802707
CC3051   HN3  1  0.267269615442  0.089736802707
CC3051   HN4  1  0.189271432669  0.089736802707
CC3051   HN5  1  0.189271432669  0.089736802707
CC3051   HN6  1  0.286869387241  0.062058748940
CC3051   HN7  1  0.286869387241  0.062058748940
CC3051   HN8  1  0.288651184677  0.070011711020
CC3051   HN9  1  0.288651184677  0.064818249282
CC3051   NN1  1  0.334087019303  0.187114168357
CC3051   NN2  1  0.334087019303  0.187114168357
CC3051  NN2B  1  0.334087019303  0.187114168357
CC3051  NN2G  1  0.334087019303  0.187114168357
CC3051  NN2U  1  0.334087019303  0.187114168357
CC3051   NN3  1  0.334087019303  0.187114168357
CC3051  NN3A  1  0.334087019303  0.187114168357
CC3051  NN3G  1  0.334087019303  0.187114168357
CC3051   NN4  1  0.334087019303  0.187114168357
CC3051   NN6  1  0.334087019303  0.187114168357
CC3051   ON1  1  0.320723538531  0.144938011577
CC3051  ON1C  1  0.320723538531  0.144938011577
CC3051   ON2  1  0.326959829558  0.163176000000
CC3051   ON3  1  0.320723538531  0.144938011577
CC3051   ON4  1  0.326959829558  0.163176000000
CC3051   ON5  1  0.326959829558  0.163176000000
CC3051   ON6  1  0.326959829558  0.163176000000
CC3051  ON6B  1  0.326959829558  0.163176000000
CC3051   CN1  1  0.338541512893  0.132309697301
CC3051  CN1T  1  0.338541512893  0.132309697301
CC3051   CN2  1  0.338541512893  0.132309697301
CC3051   CN3  1  0.338541512893  0.125520000000
CC3051  CN3T  1  0.338541512893  0.125520000000
CC3051   CN4  1  0.338541512893  0.114583559030
CC3051   CN5  1  0.338541512893  0.114583559030
CC3051  CN5G  1  0.338541512893  0.114583559030
CC3051   CN7  1  0.338541512893  0.041840000000
CC3051  CN7B  1  0.338541512893  0.041840000000
CC3051   CN8  1  0.338541512893  0.041840000000
CC3051  CN8B  1  0.338541512893  0.041840000000
CC3051   CN9  1  0.338541512893  0.041840000000
CC3051     P  1  0.360813980847  0.320014464673
CC3051    P2  1  0.360813980847  0.320014464673
CC3051    P3  1  0.360813980847  0.320014464673
CC3051    P4  1  0.360813980847  0.320014464673
CC3051   HOL  1  0.189271432669  0.089736802707
CC3051  HAL1  1  0.286869387241  0.062058748940
CC3051  HAL2  1  0.288651184677  0.070011711020
CC3051  HAL3  1  0.288651184677  0.064818249282
CC3051   HBL  1  0.286869387241  0.062058748940
CC3051   HCL  1  0.189271432669  0.089736802707
CC3051    HL  1  0.231633666716  0.089736802707
CC3051  HEL1  1  0.280633096214  0.073666921749
CC3051  HEL2  1  0.281523994932  0.067464972838
CC3051    CL  1  0.347450500075  0.110698234855
CC3051   CCL  1  0.347450500075  0.110698234855
CC3051  CTL1  1  0.338541512893  0.041840000000
CC3051  CTL2  1  0.338541512893  0.041840000000
CC3051  CTL3  1  0.338541512893  0.041840000000
CC3051  CTL5  1  0.338541512893  0.041840000000
CC3051  CEL1  1  0.355468588538  0.109105371453
CC3051  CEL2  1  0.354577689820  0.105847757841
CC3051  CRL1  1  0.338541512893  0.041840000000
CC3051  CRL2  1  0.338541512893  0.041840000000
CC3051   OBL  1  0.293996576986  0.144938011577
CC3051   OCL  1  0.320723538531  0.144938011577
CC3051   O2L  1  0.320723538531  0.144938011577
CC3051   OHL  1  0.326959829558  0.163176000000
CC3051   OSL  1  0.316269044940  0.132309697301
CC3051  OSLP  1  0.316269044940  0.132309697301
CC3051  NH3L  1  0.334087019303  0.187114168357
CC3051   NTL  1  0.334087019303  0.187114168357
CC3051    SL  1  0.356359487256  0.286840588481
CC3051    PL  1  0.360813980847  0.320014464673
CC3051 HCA1A  1  0.288651184677  0.088756043175
CC3051 HCA2A  1  0.288651184677  0.078275472531
CC3051 HCA3A  1  0.288651184677  0.064818249282
CC3051 CC30A  1  0.338541512893  0.041840000000
CC3051 CC31A  1  0.338541512893  0.041840000000
CC3051 CC32A  1  0.338541512893  0.041840000000
CC3051 CC33A  1  0.338541512893  0.041840000000
CC3051 CC326A  1  0.338541512893  0.041840000000
CC3051 HCA25A  1  0.285087589805  0.078275472531
CC3051 CC325A  1  0.338541512893  0.041840000000
CC3051 CC325B  1  0.338541512893  0.041840000000
CC3051 OC305A  1  0.316269044940  0.132309697301
CC3051 OC30A  1  0.316269044940  0.132309697301
CC3051  HSIO  1  0.189271432669  0.089736802707
CC3051  HSIA  1  0.286869387241  0.062058748940
CC3051   HAL  1  0.286869387241  0.062058748940
CC3051    AL  1  0.365268474438  0.337324864189
CC3051    SI  1  0.365268474438  0.324091246411
CC3051  SIH3  1  0.365268474438  0.324091246411
CC3051  OSIH  1  0.326959829558  0.163176000000
CC3051  OSIE  1  0.326959829558  0.163176000000
CC3051  OSIA  1  0.326959829558  0.163176000000
CC3051   OAL  1  0.326959829558  0.163176000000
CC3051    HT  1  0.189271432669  0.089736802707
CC3051    OT  1  0.326799467788  0.163176000000
CC3051   DUM  1  0.169270756447  0.000000000000
CC3051    CM  1  0.356359487256  0.138767581228
CC3051   CPA  1  0.329632525712  0.125520000000
CC3051   CPB  1  0.329632525712  0.125520000000
CC3051   CPM  1  0.329632525712  0.125520000000
CC3051   CST  1  0.308518226092  0.100764063435
CC3051  CT1X  1  0.338541512893  0.041840000000
CC3051  CT2X  1  0.338541512893  0.041840000000
CC3051  CT3X  1  0.338541512893  0.041840000000
CC3051    HB  1  0.286869387241  0.062058748940
CC3051   NPH  1  0.334087019303  0.187114168357
CC3051    OM  1  0.320723538531  0.144938011577
CC3051   OST  1  0.320010819556  0.169954883425
CC3051   POT  1  0.326403017859  0.123410269913
CC3051   CAL  1  0.291056611216  0.144938011577
CC3051    MG  1  0.274842254546  0.051243325419
CC3051   CES  1  0.356359487256  0.182376331798
CC3051    ZN  1  0.266378716724  0.209200000000
CC3051    FE  1  0.227179173126  0.000000000000
CC3051    HE  1  0.301123766731  0.061020452073
CC3051    NE  1  0.305578260322  0.122698965603
CC3051  CLAL  1  0.339272049842  0.072469005789
CC3051    AG  1  0.300901042052  0.893457908130
CC3051    AU  1  0.300722862308  0.962320000000
CC3051    CU  1  0.285800308779  0.908997471504
CC3051    NI  1  0.282949432881  0.994525446633
CC3051    PB  1  0.328073452955  0.716185437439
CC3051    PD  1  0.294842930769  1.037598257516
CC3051    PT  1  0.296001099102  1.168527606863
CC3051   CAP  1  0.346773417049  0.110698234855
CC3051    FA  1  0.320723538531  0.144938011577
CC3051    CN  1  0.325178032121  0.187114168357
CC3051    NC  1  0.334087019303  0.324091246411
CC3051   OCA  1  0.293996576986  0.144938011577
CC3051   COA  1  0.347450500075  0.138767581228
CC3051   CF1  1  0.338541512893  0.102486650838
CC3051   CF2  1  0.351904993665  0.085746484010
CC3051   CF3  1  0.374177461619  0.059170695450
CC3051   HF1  1  0.286869387241  0.070011711020
CC3051   HF2  1  0.285087589805  0.072469005789
CC3051    F1  1  0.314487247504  0.153729976257
CC3051    F2  1  0.314487247504  0.135577095411
CC3051    F3  1  0.311814551349  0.130309939452
CC3051    OX  1  0.320723538531  0.144938011577
CC3051    HX  1  0.189271432669  0.089736802707
CC3051  HPER  1  0.189271432669  0.089736802707
CC3051  OPER  1  0.318427692534  0.188901923946
CC3051   LIT  1  0.284864865125  0.020196198771
CC3051   RUB  1  0.338541512893  0.162045623205
CC3051   BAR  1  0.337650614175  0.162045623205
CC3051   CAD  1  0.290165712498  0.144938011577
CC3051  ON2B  1  0.326959829558  0.163176000000
CC3051    SP  1  0.365268474438  0.280671252536
CC3051   HNP  1  0.290272620344  0.072469005789
CC3051  HNE1  1  0.280633096214  0.073666921749
CC3051  HNE2  1  0.281523994932  0.067464972838
CC3051  CN3D  1  0.338541512893  0.125520000000
CC3051  CNE1  1  0.355468588538  0.109105371453
CC3051  CNE2  1  0.354577689820  0.105847757841
CC3051   CNA  1  0.346773417049  0.110698234855
CC3051  CNA2  1  0.338541512893  0.110698234855
CC3051   CNG  1  0.347450500075  0.138767581228
CC3051  NN1C  1  0.334087019303  0.187114168357
CC3051  NN2C  1  0.334087019303  0.187114168357
CC3051  NN3I  1  0.334087019303  0.187114168357
CC3051   NNG  1  0.334087019303  0.187114168357
CC3051   FNA  1  0.320723538531  0.144938011577
CC3051  ON2M  1  0.316269044940  0.132309697301
CC3051   CN6  1  0.338541512893  0.041840000000
CC3051  CN7E  1  0.338541512893  0.041840000000
CC3051  CT2P  1  0.338541512893  0.041840000000
CC3051  CTD1  1  0.338541512893  0.041840000000
CC3051  CPD1  1  0.338541512893  0.041840000000
CC3051  CC1A  1  0.355468588538  0.109105371453
CC3051  CC1B  1  0.355468588538  0.109105371453
CC3051   CC2  1  0.354577689820  0.105847757841
CC3051   NS1  1  0.334087019303  0.187114168357
CC3051   NS2  1  0.334087019303  0.187114168357
CC3051   NHL  1  0.307360057758  0.187114168357
CC3051  CTO1  1  0.338541512893  0.041840000000
CC3051  CEL3  1  0.355468588538  0.109105371453
CC3051  CTO2  1  0.338541512893  0.041840000000
CC3051  HN3B  1  0.249451641079  0.089736802707
CC3051  CN1A  1  0.347450500075  0.110698234855
CC3051  CN3A  1  0.329632525712  0.177512086349
CC3051  CN3B  1  0.329632525712  0.177512086349
CC3051  CN3C  1  0.329632525712  0.177512086349
CC3251     C  1  0.347450500075  0.138767581228
CC3251    CA  1  0.346773417049  0.110698234855
CC3251    CC  1  0.347450500075  0.110698234855
CC3251    CD  1  0.347450500075  0.110698234855
CC3251   CE1  1  0.355468588538  0.109105371453
CC3251   CE2  1  0.354577689820  0.105847757841
CC3251   CP1  1  0.338541512893  0.041840000000
CC3251   CP2  1  0.338541512893  0.041840000000
CC3251   CP3  1  0.338541512893  0.041840000000
CC3251  CPH1  1  0.329632525712  0.093557084179
CC3251  CPH2  1  0.329632525712  0.093557084179
CC3251    CS  1  0.365268474438  0.138767581228
CC3251   CPT  1  0.334977918021  0.131646486622
CC3251    CY  1  0.346559601357  0.113045454929
CC3251   CAI  1  0.346559601357  0.113045454929
CC3251    CT  1  0.338541512893  0.041840000000
CC3251   CT1  1  0.338541512893  0.041840000000
CC3251   CT2  1  0.338541512893  0.041840000000
CC3251  CT2A  1  0.338541512893  0.041840000000
CC3251   CT3  1  0.338541512893  0.041840000000
CC3251    C3  1  0.371950214824  0.059170695450
CC3251     H  1  0.189271432669  0.089736802707
CC3251    HA  1  0.286869387241  0.062058748940
CC3251   HB1  1  0.286869387241  0.062058748940
CC3251   HB2  1  0.288651184677  0.070011711020
CC3251   HE1  1  0.280633096214  0.073666921749
CC3251   HE2  1  0.281523994932  0.067464972838
CC3251    HC  1  0.189271432669  0.089736802707
CC3251    HP  1  0.290272620344  0.072469005789
CC3251   HR1  1  0.249451641079  0.089736802707
CC3251   HR2  1  0.231633666716  0.089736802707
CC3251   HR3  1  0.300054688270  0.036952087465
CC3251    HS  1  0.209361198763  0.132309697301
CC3251   HA1  1  0.288651184677  0.088756043175
CC3251   HA2  1  0.288651184677  0.077149148019
CC3251   HA3  1  0.288651184677  0.064818249282
CC3251     N  1  0.334087019303  0.004184000000
CC3251   NC2  1  0.334087019303  0.187114168357
CC3251   NH1  1  0.307360057758  0.187114168357
CC3251   NH2  1  0.334087019303  0.187114168357
CC3251   NH3  1  0.334087019303  0.187114168357
CC3251    NP  1  0.334087019303  0.187114168357
CC3251   NR1  1  0.334087019303  0.187114168357
CC3251   NR2  1  0.334087019303  0.187114168357
CC3251   NR3  1  0.334087019303  0.187114168357
CC3251    NY  1  0.334087019303  0.187114168357
CC3251     O  1  0.293996576986  0.144938011577
CC3251    OB  1  0.293996576986  0.144938011577
CC3251    OC  1  0.320723538531  0.144938011577
CC3251   OH1  1  0.326959829558  0.163176000000
CC3251    OS  1  0.326959829558  0.163176000000
CC3251     S  1  0.347450500075  0.280671252536
CC3251    SM  1  0.345223253279  0.257919081884
CC3251    SS  1  0.365268474438  0.286840588481
CC3251  HGA1  1  0.288651184677  0.088756043175
CC3251  HGA2  1  0.288651184677  0.078275472531
CC3251  HGA3  1  0.288651184677  0.064818249282
CC3251  HGA4  1  0.280633096214  0.073666921749
CC3251  HGA5  1  0.281523994932  0.067464972838
CC3251  HGA6  1  0.286869387241  0.070011711020
CC3251  HGA7  1  0.285087589805  0.072469005789
CC3251 HGAAM0  1  0.283305792369  0.070011711020
CC3251 HGAAM1  1  0.283305792369  0.070011711020
CC3251 HGAAM2  1  0.281523994932  0.083680000000
CC3251  HGP1  1  0.189271432669  0.089736802707
CC3251  HGP2  1  0.189271432669  0.089736802707
CC3251  HGP3  1  0.209361198763  0.132309697301
CC3251  HGP4  1  0.189271432669  0.089736802707
CC3251  HGP5  1  0.231633666716  0.089736802707
CC3251 HGPAM1  1  0.247224394284  0.039692909190
CC3251 HGPAM2  1  0.247224394284  0.041840000000
CC3251 HGPAM3  1  0.246778944925  0.045833423612
CC3251 HGR51  1  0.290272620344  0.072469005789
CC3251 HGR52  1  0.249451641079  0.089736802707
CC3251 HGR53  1  0.231633666716  0.089736802707
CC3251 HGR61  1  0.290272620344  0.072469005789
CC3251 HGR62  1  0.267269615442  0.089736802707
CC3251 HGR63  1  0.249451641079  0.089736802707
CC3251 HGR71  1  0.290272620344  0.072469005789
CC3251 HGTIP3  1  0.189271432669  0.089736802707
CC3251 CG1T1  1  0.333196120584  0.170981810495
CC3251 CG1T2  1  0.346782326036  0.134409982486
CC3251 CG1N1  1  0.335868816739  0.177512086349
CC3251 CG2D1  1  0.355468588538  0.109105371453
CC3251 CG2D2  1  0.354577689820  0.105847757841
CC3251 CG2D1O  1  0.355468588538  0.109105371453
CC3251 CG2D2O  1  0.355468588538  0.109105371453
CC3251 CG2DC1  1  0.355468588538  0.109105371453
CC3251 CG2DC2  1  0.355468588538  0.109105371453
CC3251 CG2DC3  1  0.354577689820  0.105847757841
CC3251 CG2N1  1  0.347450500075  0.138767581228
CC3251 CG2N2  1  0.347450500075  0.138767581228
CC3251 CG2O1  1  0.347450500075  0.138767581228
CC3251 CG2O2  1  0.320723538531  0.130979917850
CC3251 CG2O3  1  0.347450500075  0.110698234855
CC3251 CG2O4  1  0.329632525712  0.102486650838
CC3251 CG2O5  1  0.347450500075  0.125520000000
CC3251 CG2O6  1  0.347450500075  0.110698234855
CC3251 CG2O7  1  0.308518226092  0.100764063435
CC3251 CG2R51  1  0.356359487256  0.093557084179
CC3251 CG2R52  1  0.365268474438  0.059170695450
CC3251 CG2R53  1  0.365268474438  0.059170695450
CC3251 CG2R57  1  0.356359487256  0.093557084179
CC3251 CG25C1  1  0.355468588538  0.109105371453
CC3251 CG25C2  1  0.355468588538  0.109105371453
CC3251 CG251O  1  0.355468588538  0.109105371453
CC3251 CG252O  1  0.355468588538  0.109105371453
CC3251 CG2R61  1  0.346773417049  0.110698234855
CC3251 CG2R62  1  0.338541512893  0.125520000000
CC3251 CG2R63  1  0.338541512893  0.132309697301
CC3251 CG2R64  1  0.356359487256  0.083680000000
CC3251 CG2R66  1  0.338541512893  0.110698234855
CC3251 CG2R67  1  0.346773417049  0.110698234855
CC3251 CG2RC0  1  0.334977918021  0.131646486622
CC3251 CG2R71  1  0.346987232741  0.108300154755
CC3251 CG2RC7  1  0.334977918021  0.131646486622
CC3251 CG301  1  0.338541512893  0.041840000000
CC3251 CG302  1  0.374177461619  0.059170695450
CC3251 CG311  1  0.338541512893  0.041840000000
CC3251 CG312  1  0.351904993665  0.085746484010
CC3251 CG314  1  0.338541512893  0.041840000000
CC3251 CG321  1  0.338541512893  0.041840000000
CC3251 CG322  1  0.338541512893  0.102486650838
CC3251 CG323  1  0.365268474438  0.138767581228
CC3251 CG324  1  0.338541512893  0.041840000000
CC3251 CG331  1  0.338541512893  0.041840000000
CC3251 CG334  1  0.338541512893  0.041840000000
CC3251 CG3C50  1  0.338541512893  0.041840000000
CC3251 CG3C51  1  0.338541512893  0.041840000000
CC3251 CG3C52  1  0.338541512893  0.041840000000
CC3251 CG3C53  1  0.338541512893  0.041840000000
CC3251 CG3C54  1  0.338541512893  0.041840000000
CC3251 CG3C31  1  0.338541512893  0.041840000000
CC3251 CG3C41  1  0.338541512893  0.041840000000
CC3251 CG3RC1  1  0.338541512893  0.041840000000
CC3251 CG3AM0  1  0.344777803920  0.110698234855
CC3251 CG3AM1  1  0.345668702638  0.116852760686
CC3251 CG3AM2  1  0.346559601357  0.118341390899
CC3251 NG1T1  1  0.328741626994  0.177512086349
CC3251 NG2D1  1  0.334087019303  0.187114168357
CC3251 NG2S0  1  0.334087019303  0.004184000000
CC3251 NG2S1  1  0.307360057758  0.187114168357
CC3251 NG2S2  1  0.334087019303  0.187114168357
CC3251 NG2S3  1  0.334087019303  0.187114168357
CC3251 NG2O1  1  0.334087019303  0.187114168357
CC3251 NG2P1  1  0.334087019303  0.187114168357
CC3251 NG2R43  1  0.334087019303  0.187114168357
CC3251 NG2R50  1  0.334087019303  0.187114168357
CC3251 NG2R51  1  0.334087019303  0.187114168357
CC3251 NG2R52  1  0.334087019303  0.187114168357
CC3251 NG2R53  1  0.334087019303  0.187114168357
CC3251 NG2R57  1  0.334087019303  0.187114168357
CC3251 NG2R60  1  0.337650614175  0.102486650838
CC3251 NG2R61  1  0.334087019303  0.187114168357
CC3251 NG2R62  1  0.352795892384  0.093557084179
CC3251 NG2R67  1  0.334087019303  0.187114168357
CC3251 NG2RC0  1  0.334087019303  0.187114168357
CC3251 NG301  1  0.347450500075  0.078275472531
CC3251 NG311  1  0.347450500075  0.088756043175
CC3251 NG321  1  0.346559601357  0.102486650838
CC3251 NG331  1  0.345668702638  0.110698234855
CC3251 NG3C51  1  0.334087019303  0.187114168357
CC3251 NG3N1  1  0.351904993665  0.102486650838
CC3251 NG3P0  1  0.334087019303  0.187114168357
CC3251 NG3P1  1  0.334087019303  0.187114168357
CC3251 NG3P2  1  0.334087019303  0.187114168357
CC3251 NG3P3  1  0.334087019303  0.187114168357
CC3251 OG2D1  1  0.293996576986  0.144938011577
CC3251 OG2D2  1  0.320723538531  0.144938011577
CC3251 OG2D3  1  0.293996576986  0.144938011577
CC3251 OG2D4  1  0.320723538531  0.144938011577
CC3251 OG2D5  1  0.320010819556  0.169954883425
CC3251 OG2N1  1  0.320723538531  0.144938011577
CC3251 OG2P1  1  0.320723538531  0.144938011577
CC3251 OG2R50  1  0.320723538531  0.144938011577
CC3251 OG3R60  1  0.316269044940  0.132309697301
CC3251 OG301  1  0.316269044940  0.132309697301
CC3251 OG302  1  0.316269044940  0.132309697301
CC3251 OG303  1  0.316269044940  0.132309697301
CC3251 OG304  1  0.316269044940  0.132309697301
CC3251 OG311  1  0.326514380198  0.183381431383
CC3251 OG312  1  0.325178032121  0.144938011577
CC3251 OG3C31  1  0.316269044940  0.132309697301
CC3251 OG3C51  1  0.316269044940  0.132309697301
CC3251 OG3C61  1  0.316269044940  0.132309697301
CC3251 OGTIP3  1  0.326799467788  0.163176000000
CC3251 SG2D1  1  0.351904993665  0.314496560236
CC3251 SG2R50  1  0.347450500075  0.280671252536
CC3251 SG311  1  0.347450500075  0.280671252536
CC3251 SG301  1  0.345223253279  0.257919081884
CC3251 SG302  1  0.365268474438  0.286840588481
CC3251 SG3O1  1  0.356359487256  0.286840588481
CC3251 SG3O2  1  0.347450500075  0.247528778125
CC3251 SG3O3  1  0.347450500075  0.247528778125
CC3251  FGA1  1  0.314487247504  0.153729976257
CC3251  FGA2  1  0.314487247504  0.135577095411
CC3251  FGA3  1  0.311814551349  0.130309939452
CC3251  FGP1  1  0.311814551349  0.130309939452
CC3251  FGR1  1  0.320723538531  0.144938011577
CC3251 CLGA1  1  0.339432411611  0.245040988571
CC3251 CLGA3  1  0.339432411611  0.232955260941
CC3251 BRGA1  1  0.344777803920  0.289876023155
CC3251 BRGA2  1  0.351904993665  0.304599797767
CC3251 BRGA3  1  0.347450500075  0.307459952514
CC3251   SOD  1  0.294954293108  0.090610410351
CC3251   CLA  1  0.371504765465  0.162045623205
CC3251   PG0  1  0.360813980847  0.320014464673
CC3251   PG1  1  0.360813980847  0.320014464673
CC3251   PG2  1  0.360813980847  0.320014464673
CC3251  ALG1  1  0.347450500075  0.337324864189
CC3251   LPH  1  0.169270756447  0.000000000000
CC3251 CLGR1  1  0.334977918021  0.200657590935
CC3251 BRGR1  1  0.345668702638  0.236682781799
CC3251  IGR1  1  0.368832069310  0.301712530731
CC3251 SG2P1  1  0.355798221064  0.332305491450
CC3251 OG2S1  1  0.318906105146  0.157831660601
CC3251 SG2P2  1  0.352314807076  0.329421919951
CC3251 SEGD1  1  0.363041227642  0.330244580395
CC3251 BG201  1  0.396449929572  0.081561175077
CC3251 CC301  1  0.338541512893  0.041840000000
CC3251 CC3062  1  0.338541512893  0.041840000000
CC3251 CC311  1  0.338541512893  0.041840000000
CC3251 CC3161  1  0.338541512893  0.041840000000
CC3251 CC3162  1  0.338541512893  0.041840000000
CC3251 CC3163  1  0.338541512893  0.041840000000
CC3251 CC321  1  0.338541512893  0.041840000000
CC3251 CC3261  1  0.338541512893  0.041840000000
CC3251 CC3263  1  0.338541512893  0.041840000000
CC3251 CC331  1  0.338541512893  0.041840000000
CC3251 CC2O1  1  0.347450500075  0.138767581228
CC3251 CC2O2  1  0.347450500075  0.110698234855
CC3251 CC2O3  1  0.347450500075  0.125520000000
CC3251 CC2O4  1  0.329632525712  0.102486650838
CC3251 CC2O5  1  0.320723538531  0.130979917850
CC3251 OC2D1  1  0.293996576986  0.144938011577
CC3251 OC2D2  1  0.320723538531  0.144938011577
CC3251 OC2D3  1  0.293996576986  0.144938011577
CC3251 OC2D4  1  0.293996576986  0.144938011577
CC3251 OC3C61  1  0.316269044940  0.132309697301
CC3251 OC311  1  0.326514380198  0.183381431383
CC3251 NC2D1  1  0.307360057758  0.187114168357
CC3251  HCP1  1  0.189271432669  0.089736802707
CC3251  HCA1  1  0.288651184677  0.088756043175
CC3251  HCA2  1  0.288651184677  0.078275472531
CC3251  HCA3  1  0.288651184677  0.064818249282
CC3251 CC312  1  0.338541512893  0.041840000000
CC3251 CC322  1  0.338541512893  0.041840000000
CC3251  HCR1  1  0.240542653898  0.089736802707
CC3251 HCA3M  1  0.288651184677  0.064818249282
CC3251 CC321C  1  0.338541512893  0.041840000000
CC3251 CC321D  1  0.338541512893  0.041840000000
CC3251 CC311C  1  0.338541512893  0.041840000000
CC3251 CC311D  1  0.338541512893  0.041840000000
CC3251 OC301  1  0.316269044940  0.132309697301
CC3251 OC302  1  0.316269044940  0.132309697301
CC3251 HCP1M  1  0.189271432669  0.089736802707
CC3251 OC311M  1  0.326514380198  0.183381431383
CC3251 OC3C5M  1  0.316269044940  0.132309697301
CC3251 CC322C  1  0.338541512893  0.041840000000
CC3251 HCA2C2  1  0.285087589805  0.078275472531
CC3251 CC312C  1  0.338541512893  0.041840000000
CC3251 HCA1C2  1  0.288651184677  0.088756043175
CC3251 OC3C51  1  0.316269044940  0.132309697301
CC3251 CC3152  1  0.338541512893  0.041840000000
CC3251 CC3051  1  0.338541512893  0.041840000000
CC3251 CC3251  1  0.338541512893  0.041840000000
CC3251 CC3151  1  0.338541512893  0.041840000000
CC3251 CC3153  1  0.338541512893  0.041840000000
CC3251 OC2DP  1  0.320723538531  0.144938011577
CC3251 OC312  1  0.326959829558  0.163176000000
CC3251 OC30P  1  0.326959829558  0.163176000000
CC3251    PC  1  0.360813980847  0.320014464673
CC3251    SC  1  0.356359487256  0.286840588481
CC3251 CC312D  1  0.338541512893  0.041840000000
CC3251 OC303  1  0.316269044940  0.132309697301
CC3251 NC311  1  0.347450500075  0.088756043175
CC3251   HN1  1  0.189271432669  0.089736802707
CC3251   HN2  1  0.189271432669  0.089736802707
CC3251   HN3  1  0.267269615442  0.089736802707
CC3251   HN4  1  0.189271432669  0.089736802707
CC3251   HN5  1  0.189271432669  0.089736802707
CC3251   HN6  1  0.286869387241  0.062058748940
CC3251   HN7  1  0.286869387241  0.062058748940
CC3251   HN8  1  0.288651184677  0.070011711020
CC3251   HN9  1  0.288651184677  0.064818249282
CC3251   NN1  1  0.334087019303  0.187114168357
CC3251   NN2  1  0.334087019303  0.187114168357
CC3251  NN2B  1  0.334087019303  0.187114168357
CC3251  NN2G  1  0.334087019303  0.187114168357
CC3251  NN2U  1  0.334087019303  0.187114168357
CC3251   NN3  1  0.334087019303  0.187114168357
CC3251  NN3A  1  0.334087019303  0.187114168357
CC3251  NN3G  1  0.334087019303  0.187114168357
CC3251   NN4  1  0.334087019303  0.187114168357
CC3251   NN6  1  0.334087019303  0.187114168357
CC3251   ON1  1  0.320723538531  0.144938011577
CC3251  ON1C  1  0.320723538531  0.144938011577
CC3251   ON2  1  0.326959829558  0.163176000000
CC3251   ON3  1  0.320723538531  0.144938011577
CC3251   ON4  1  0.326959829558  0.163176000000
CC3251   ON5  1  0.326959829558  0.163176000000
CC3251   ON6  1  0.326959829558  0.163176000000
CC3251  ON6B  1  0.326959829558  0.163176000000
CC3251   CN1  1  0.338541512893  0.132309697301
CC3251  CN1T  1  0.338541512893  0.132309697301
CC3251   CN2  1  0.338541512893  0.132309697301
CC3251   CN3  1  0.338541512893  0.125520000000
CC3251  CN3T  1  0.338541512893  0.125520000000
CC3251   CN4  1  0.338541512893  0.114583559030
CC3251   CN5  1  0.338541512893  0.114583559030
CC3251  CN5G  1  0.338541512893  0.114583559030
CC3251   CN7  1  0.338541512893  0.041840000000
CC3251  CN7B  1  0.338541512893  0.041840000000
CC3251   CN8  1  0.338541512893  0.041840000000
CC3251  CN8B  1  0.338541512893  0.041840000000
CC3251   CN9  1  0.338541512893  0.041840000000
CC3251     P  1  0.360813980847  0.320014464673
CC3251    P2  1  0.360813980847  0.320014464673
CC3251    P3  1  0.360813980847  0.320014464673
CC3251    P4  1  0.360813980847  0.320014464673
CC3251   HOL  1  0.189271432669  0.089736802707
CC3251  HAL1  1  0.286869387241  0.062058748940
CC3251  HAL2  1  0.288651184677  0.070011711020
CC3251  HAL3  1  0.288651184677  0.064818249282
CC3251   HBL  1  0.286869387241  0.062058748940
CC3251   HCL  1  0.189271432669  0.089736802707
CC3251    HL  1  0.231633666716  0.089736802707
CC3251  HEL1  1  0.280633096214  0.073666921749
CC3251  HEL2  1  0.281523994932  0.067464972838
CC3251    CL  1  0.347450500075  0.110698234855
CC3251   CCL  1  0.347450500075  0.110698234855
CC3251  CTL1  1  0.338541512893  0.041840000000
CC3251  CTL2  1  0.338541512893  0.041840000000
CC3251  CTL3  1  0.338541512893  0.041840000000
CC3251  CTL5  1  0.338541512893  0.041840000000
CC3251  CEL1  1  0.355468588538  0.109105371453
CC3251  CEL2  1  0.354577689820  0.105847757841
CC3251  CRL1  1  0.338541512893  0.041840000000
CC3251  CRL2  1  0.338541512893  0.041840000000
CC3251   OBL  1  0.293996576986  0.144938011577
CC3251   OCL  1  0.320723538531  0.144938011577
CC3251   O2L  1  0.320723538531  0.144938011577
CC3251   OHL  1  0.326959829558  0.163176000000
CC3251   OSL  1  0.316269044940  0.132309697301
CC3251  OSLP  1  0.316269044940  0.132309697301
CC3251  NH3L  1  0.334087019303  0.187114168357
CC3251   NTL  1  0.334087019303  0.187114168357
CC3251    SL  1  0.356359487256  0.286840588481
CC3251    PL  1  0.360813980847  0.320014464673
CC3251 HCA1A  1  0.288651184677  0.088756043175
CC3251 HCA2A  1  0.288651184677  0.078275472531
CC3251 HCA3A  1  0.288651184677  0.064818249282
CC3251 CC30A  1  0.338541512893  0.041840000000
CC3251 CC31A  1  0.338541512893  0.041840000000
CC3251 CC32A  1  0.338541512893  0.041840000000
CC3251 CC33A  1  0.338541512893  0.041840000000
CC3251 CC326A  1  0.338541512893  0.041840000000
CC3251 HCA25A  1  0.285087589805  0.078275472531
CC3251 CC325A  1  0.338541512893  0.041840000000
CC3251 CC325B  1  0.338541512893  0.041840000000
CC3251 OC305A  1  0.316269044940  0.132309697301
CC3251 OC30A  1  0.316269044940  0.132309697301
CC3251  HSIO  1  0.189271432669  0.089736802707
CC3251  HSIA  1  0.286869387241  0.062058748940
CC3251   HAL  1  0.286869387241  0.062058748940
CC3251    AL  1  0.365268474438  0.337324864189
CC3251    SI  1  0.365268474438  0.324091246411
CC3251  SIH3  1  0.365268474438  0.324091246411
CC3251  OSIH  1  0.326959829558  0.163176000000
CC3251  OSIE  1  0.326959829558  0.163176000000
CC3251  OSIA  1  0.326959829558  0.163176000000
CC3251   OAL  1  0.326959829558  0.163176000000
CC3251    HT  1  0.189271432669  0.089736802707
CC3251    OT  1  0.326799467788  0.163176000000
CC3251   DUM  1  0.169270756447  0.000000000000
CC3251    CM  1  0.356359487256  0.138767581228
CC3251   CPA  1  0.329632525712  0.125520000000
CC3251   CPB  1  0.329632525712  0.125520000000
CC3251   CPM  1  0.329632525712  0.125520000000
CC3251   CST  1  0.308518226092  0.100764063435
CC3251  CT1X  1  0.338541512893  0.041840000000
CC3251  CT2X  1  0.338541512893  0.041840000000
CC3251  CT3X  1  0.338541512893  0.041840000000
CC3251    HB  1  0.286869387241  0.062058748940
CC3251   NPH  1  0.334087019303  0.187114168357
CC3251    OM  1  0.320723538531  0.144938011577
CC3251   OST  1  0.320010819556  0.169954883425
CC3251   POT  1  0.326403017859  0.123410269913
CC3251   CAL  1  0.291056611216  0.144938011577
CC3251    MG  1  0.274842254546  0.051243325419
CC3251   CES  1  0.356359487256  0.182376331798
CC3251    ZN  1  0.266378716724  0.209200000000
CC3251    FE  1  0.227179173126  0.000000000000
CC3251    HE  1  0.301123766731  0.061020452073
CC3251    NE  1  0.305578260322  0.122698965603
CC3251  CLAL  1  0.339272049842  0.072469005789
CC3251    AG  1  0.300901042052  0.893457908130
CC3251    AU  1  0.300722862308  0.962320000000
CC3251    CU  1  0.285800308779  0.908997471504
CC3251    NI  1  0.282949432881  0.994525446633
CC3251    PB  1  0.328073452955  0.716185437439
CC3251    PD  1  0.294842930769  1.037598257516
CC3251    PT  1  0.296001099102  1.168527606863
CC3251   CAP  1  0.346773417049  0.110698234855
CC3251    FA  1  0.320723538531  0.144938011577
CC3251    CN  1  0.325178032121  0.187114168357
CC3251    NC  1  0.334087019303  0.324091246411
CC3251   OCA  1  0.293996576986  0.144938011577
CC3251   COA  1  0.347450500075  0.138767581228
CC3251   CF1  1  0.338541512893  0.102486650838
CC3251   CF2  1  0.351904993665  0.085746484010
CC3251   CF3  1  0.374177461619  0.059170695450
CC3251   HF1  1  0.286869387241  0.070011711020
CC3251   HF2  1  0.285087589805  0.072469005789
CC3251    F1  1  0.314487247504  0.153729976257
CC3251    F2  1  0.314487247504  0.135577095411
CC3251    F3  1  0.311814551349  0.130309939452
CC3251    OX  1  0.320723538531  0.144938011577
CC3251    HX  1  0.189271432669  0.089736802707
CC3251  HPER  1  0.189271432669  0.089736802707
CC3251  OPER  1  0.318427692534  0.188901923946
CC3251   LIT  1  0.284864865125  0.020196198771
CC3251   RUB  1  0.338541512893  0.162045623205
CC3251   BAR  1  0.337650614175  0.162045623205
CC3251   CAD  1  0.290165712498  0.144938011577
CC3251  ON2B  1  0.326959829558  0.163176000000
CC3251    SP  1  0.365268474438  0.280671252536
CC3251   HNP  1  0.290272620344  0.072469005789
CC3251  HNE1  1  0.280633096214  0.073666921749
CC3251  HNE2  1  0.281523994932  0.067464972838
CC3251  CN3D  1  0.338541512893  0.125520000000
CC3251  CNE1  1  0.355468588538  0.109105371453
CC3251  CNE2  1  0.354577689820  0.105847757841
CC3251   CNA  1  0.346773417049  0.110698234855
CC3251  CNA2  1  0.338541512893  0.110698234855
CC3251   CNG  1  0.347450500075  0.138767581228
CC3251  NN1C  1  0.334087019303  0.187114168357
CC3251  NN2C  1  0.334087019303  0.187114168357
CC3251  NN3I  1  0.334087019303  0.187114168357
CC3251   NNG  1  0.334087019303  0.187114168357
CC3251   FNA  1  0.320723538531  0.144938011577
CC3251  ON2M  1  0.316269044940  0.132309697301
CC3251   CN6  1  0.338541512893  0.041840000000
CC3251  CN7E  1  0.338541512893  0.041840000000
CC3251  CT2P  1  0.338541512893  0.041840000000
CC3251  CTD1  1  0.338541512893  0.041840000000
CC3251  CPD1  1  0.338541512893  0.041840000000
CC3251  CC1A  1  0.355468588538  0.109105371453
CC3251  CC1B  1  0.355468588538  0.109105371453
CC3251   CC2  1  0.354577689820  0.105847757841
CC3251   NS1  1  0.334087019303  0.187114168357
CC3251   NS2  1  0.334087019303  0.187114168357
CC3251   NHL  1  0.307360057758  0.187114168357
CC3251  CTO1  1  0.338541512893  0.041840000000
CC3251  CEL3  1  0.355468588538  0.109105371453
CC3251  CTO2  1  0.338541512893  0.041840000000
CC3251  HN3B  1  0.249451641079  0.089736802707
CC3251  CN1A  1  0.347450500075  0.110698234855
CC3251  CN3A  1  0.329632525712  0.177512086349
CC3251  CN3B  1  0.329632525712  0.177512086349
CC3251  CN3C  1  0.329632525712  0.177512086349
CC3151     C  1  0.347450500075  0.138767581228
CC3151    CA  1  0.346773417049  0.110698234855
CC3151    CC  1  0.347450500075  0.110698234855
CC3151    CD  1  0.347450500075  0.110698234855
CC3151   CE1  1  0.355468588538  0.109105371453
CC3151   CE2  1  0.354577689820  0.105847757841
CC3151   CP1  1  0.338541512893  0.041840000000
CC3151   CP2  1  0.338541512893  0.041840000000
CC3151   CP3  1  0.338541512893  0.041840000000
CC3151  CPH1  1  0.329632525712  0.093557084179
CC3151  CPH2  1  0.329632525712  0.093557084179
CC3151    CS  1  0.365268474438  0.138767581228
CC3151   CPT  1  0.334977918021  0.131646486622
CC3151    CY  1  0.346559601357  0.113045454929
CC3151   CAI  1  0.346559601357  0.113045454929
CC3151    CT  1  0.338541512893  0.041840000000
CC3151   CT1  1  0.338541512893  0.041840000000
CC3151   CT2  1  0.338541512893  0.041840000000
CC3151  CT2A  1  0.338541512893  0.041840000000
CC3151   CT3  1  0.338541512893  0.041840000000
CC3151    C3  1  0.371950214824  0.059170695450
CC3151     H  1  0.189271432669  0.089736802707
CC3151    HA  1  0.286869387241  0.062058748940
CC3151   HB1  1  0.286869387241  0.062058748940
CC3151   HB2  1  0.288651184677  0.070011711020
CC3151   HE1  1  0.280633096214  0.073666921749
CC3151   HE2  1  0.281523994932  0.067464972838
CC3151    HC  1  0.189271432669  0.089736802707
CC3151    HP  1  0.290272620344  0.072469005789
CC3151   HR1  1  0.249451641079  0.089736802707
CC3151   HR2  1  0.231633666716  0.089736802707
CC3151   HR3  1  0.300054688270  0.036952087465
CC3151    HS  1  0.209361198763  0.132309697301
CC3151   HA1  1  0.288651184677  0.088756043175
CC3151   HA2  1  0.288651184677  0.077149148019
CC3151   HA3  1  0.288651184677  0.064818249282
CC3151     N  1  0.334087019303  0.004184000000
CC3151   NC2  1  0.334087019303  0.187114168357
CC3151   NH1  1  0.307360057758  0.187114168357
CC3151   NH2  1  0.334087019303  0.187114168357
CC3151   NH3  1  0.334087019303  0.187114168357
CC3151    NP  1  0.334087019303  0.187114168357
CC3151   NR1  1  0.334087019303  0.187114168357
CC3151   NR2  1  0.334087019303  0.187114168357
CC3151   NR3  1  0.334087019303  0.187114168357
CC3151    NY  1  0.334087019303  0.187114168357
CC3151     O  1  0.293996576986  0.144938011577
CC3151    OB  1  0.293996576986  0.144938011577
CC3151    OC  1  0.320723538531  0.144938011577
CC3151   OH1  1  0.326959829558  0.163176000000
CC3151    OS  1  0.326959829558  0.163176000000
CC3151     S  1  0.347450500075  0.280671252536
CC3151    SM  1  0.345223253279  0.257919081884
CC3151    SS  1  0.365268474438  0.286840588481
CC3151  HGA1  1  0.288651184677  0.088756043175
CC3151  HGA2  1  0.288651184677  0.078275472531
CC3151  HGA3  1  0.288651184677  0.064818249282
CC3151  HGA4  1  0.280633096214  0.073666921749
CC3151  HGA5  1  0.281523994932  0.067464972838
CC3151  HGA6  1  0.286869387241  0.070011711020
CC3151  HGA7  1  0.285087589805  0.072469005789
CC3151 HGAAM0  1  0.283305792369  0.070011711020
CC3151 HGAAM1  1  0.283305792369  0.070011711020
CC3151 HGAAM2  1  0.281523994932  0.083680000000
CC3151  HGP1  1  0.189271432669  0.089736802707
CC3151  HGP2  1  0.189271432669  0.089736802707
CC3151  HGP3  1  0.209361198763  0.132309697301
CC3151  HGP4  1  0.189271432669  0.089736802707
CC3151  HGP5  1  0.231633666716  0.089736802707
CC3151 HGPAM1  1  0.247224394284  0.039692909190
CC3151 HGPAM2  1  0.247224394284  0.041840000000
CC3151 HGPAM3  1  0.246778944925  0.045833423612
CC3151 HGR51  1  0.290272620344  0.072469005789
CC3151 HGR52  1  0.249451641079  0.089736802707
CC3151 HGR53  1  0.231633666716  0.089736802707
CC3151 HGR61  1  0.290272620344  0.072469005789
CC3151 HGR62  1  0.267269615442  0.089736802707
CC3151 HGR63  1  0.249451641079  0.089736802707
CC3151 HGR71  1  0.290272620344  0.072469005789
CC3151 HGTIP3  1  0.189271432669  0.089736802707
CC3151 CG1T1  1  0.333196120584  0.170981810495
CC3151 CG1T2  1  0.346782326036  0.134409982486
CC3151 CG1N1  1  0.335868816739  0.177512086349
CC3151 CG2D1  1  0.355468588538  0.109105371453
CC3151 CG2D2  1  0.354577689820  0.105847757841
CC3151 CG2D1O  1  0.355468588538  0.109105371453
CC3151 CG2D2O  1  0.355468588538  0.109105371453
CC3151 CG2DC1  1  0.355468588538  0.109105371453
CC3151 CG2DC2  1  0.355468588538  0.109105371453
CC3151 CG2DC3  1  0.354577689820  0.105847757841
CC3151 CG2N1  1  0.347450500075  0.138767581228
CC3151 CG2N2  1  0.347450500075  0.138767581228
CC3151 CG2O1  1  0.347450500075  0.138767581228
CC3151 CG2O2  1  0.320723538531  0.130979917850
CC3151 CG2O3  1  0.347450500075  0.110698234855
CC3151 CG2O4  1  0.329632525712  0.102486650838
CC3151 CG2O5  1  0.347450500075  0.125520000000
CC3151 CG2O6  1  0.347450500075  0.110698234855
CC3151 CG2O7  1  0.308518226092  0.100764063435
CC3151 CG2R51  1  0.356359487256  0.093557084179
CC3151 CG2R52  1  0.365268474438  0.059170695450
CC3151 CG2R53  1  0.365268474438  0.059170695450
CC3151 CG2R57  1  0.356359487256  0.093557084179
CC3151 CG25C1  1  0.355468588538  0.109105371453
CC3151 CG25C2  1  0.355468588538  0.109105371453
CC3151 CG251O  1  0.355468588538  0.109105371453
CC3151 CG252O  1  0.355468588538  0.109105371453
CC3151 CG2R61  1  0.346773417049  0.110698234855
CC3151 CG2R62  1  0.338541512893  0.125520000000
CC3151 CG2R63  1  0.338541512893  0.132309697301
CC3151 CG2R64  1  0.356359487256  0.083680000000
CC3151 CG2R66  1  0.338541512893  0.110698234855
CC3151 CG2R67  1  0.346773417049  0.110698234855
CC3151 CG2RC0  1  0.334977918021  0.131646486622
CC3151 CG2R71  1  0.346987232741  0.108300154755
CC3151 CG2RC7  1  0.334977918021  0.131646486622
CC3151 CG301  1  0.338541512893  0.041840000000
CC3151 CG302  1  0.374177461619  0.059170695450
CC3151 CG311  1  0.338541512893  0.041840000000
CC3151 CG312  1  0.351904993665  0.085746484010
CC3151 CG314  1  0.338541512893  0.041840000000
CC3151 CG321  1  0.338541512893  0.041840000000
CC3151 CG322  1  0.338541512893  0.102486650838
CC3151 CG323  1  0.365268474438  0.138767581228
CC3151 CG324  1  0.338541512893  0.041840000000
CC3151 CG331  1  0.338541512893  0.041840000000
CC3151 CG334  1  0.338541512893  0.041840000000
CC3151 CG3C50  1  0.338541512893  0.041840000000
CC3151 CG3C51  1  0.338541512893  0.041840000000
CC3151 CG3C52  1  0.338541512893  0.041840000000
CC3151 CG3C53  1  0.338541512893  0.041840000000
CC3151 CG3C54  1  0.338541512893  0.041840000000
CC3151 CG3C31  1  0.338541512893  0.041840000000
CC3151 CG3C41  1  0.338541512893  0.041840000000
CC3151 CG3RC1  1  0.338541512893  0.041840000000
CC3151 CG3AM0  1  0.344777803920  0.110698234855
CC3151 CG3AM1  1  0.345668702638  0.116852760686
CC3151 CG3AM2  1  0.346559601357  0.118341390899
CC3151 NG1T1  1  0.328741626994  0.177512086349
CC3151 NG2D1  1  0.334087019303  0.187114168357
CC3151 NG2S0  1  0.334087019303  0.004184000000
CC3151 NG2S1  1  0.307360057758  0.187114168357
CC3151 NG2S2  1  0.334087019303  0.187114168357
CC3151 NG2S3  1  0.334087019303  0.187114168357
CC3151 NG2O1  1  0.334087019303  0.187114168357
CC3151 NG2P1  1  0.334087019303  0.187114168357
CC3151 NG2R43  1  0.334087019303  0.187114168357
CC3151 NG2R50  1  0.334087019303  0.187114168357
CC3151 NG2R51  1  0.334087019303  0.187114168357
CC3151 NG2R52  1  0.334087019303  0.187114168357
CC3151 NG2R53  1  0.334087019303  0.187114168357
CC3151 NG2R57  1  0.334087019303  0.187114168357
CC3151 NG2R60  1  0.337650614175  0.102486650838
CC3151 NG2R61  1  0.334087019303  0.187114168357
CC3151 NG2R62  1  0.352795892384  0.093557084179
CC3151 NG2R67  1  0.334087019303  0.187114168357
CC3151 NG2RC0  1  0.334087019303  0.187114168357
CC3151 NG301  1  0.347450500075  0.078275472531
CC3151 NG311  1  0.347450500075  0.088756043175
CC3151 NG321  1  0.346559601357  0.102486650838
CC3151 NG331  1  0.345668702638  0.110698234855
CC3151 NG3C51  1  0.334087019303  0.187114168357
CC3151 NG3N1  1  0.351904993665  0.102486650838
CC3151 NG3P0  1  0.334087019303  0.187114168357
CC3151 NG3P1  1  0.334087019303  0.187114168357
CC3151 NG3P2  1  0.334087019303  0.187114168357
CC3151 NG3P3  1  0.334087019303  0.187114168357
CC3151 OG2D1  1  0.293996576986  0.144938011577
CC3151 OG2D2  1  0.320723538531  0.144938011577
CC3151 OG2D3  1  0.293996576986  0.144938011577
CC3151 OG2D4  1  0.320723538531  0.144938011577
CC3151 OG2D5  1  0.320010819556  0.169954883425
CC3151 OG2N1  1  0.320723538531  0.144938011577
CC3151 OG2P1  1  0.320723538531  0.144938011577
CC3151 OG2R50  1  0.320723538531  0.144938011577
CC3151 OG3R60  1  0.316269044940  0.132309697301
CC3151 OG301  1  0.316269044940  0.132309697301
CC3151 OG302  1  0.316269044940  0.132309697301
CC3151 OG303  1  0.316269044940  0.132309697301
CC3151 OG304  1  0.316269044940  0.132309697301
CC3151 OG311  1  0.326514380198  0.183381431383
CC3151 OG312  1  0.325178032121  0.144938011577
CC3151 OG3C31  1  0.316269044940  0.132309697301
CC3151 OG3C51  1  0.316269044940  0.132309697301
CC3151 OG3C61  1  0.316269044940  0.132309697301
CC3151 OGTIP3  1  0.326799467788  0.163176000000
CC3151 SG2D1  1  0.351904993665  0.314496560236
CC3151 SG2R50  1  0.347450500075  0.280671252536
CC3151 SG311  1  0.347450500075  0.280671252536
CC3151 SG301  1  0.345223253279  0.257919081884
CC3151 SG302  1  0.365268474438  0.286840588481
CC3151 SG3O1  1  0.356359487256  0.286840588481
CC3151 SG3O2  1  0.347450500075  0.247528778125
CC3151 SG3O3  1  0.347450500075  0.247528778125
CC3151  FGA1  1  0.314487247504  0.153729976257
CC3151  FGA2  1  0.314487247504  0.135577095411
CC3151  FGA3  1  0.311814551349  0.130309939452
CC3151  FGP1  1  0.311814551349  0.130309939452
CC3151  FGR1  1  0.320723538531  0.144938011577
CC3151 CLGA1  1  0.339432411611  0.245040988571
CC3151 CLGA3  1  0.339432411611  0.232955260941
CC3151 BRGA1  1  0.344777803920  0.289876023155
CC3151 BRGA2  1  0.351904993665  0.304599797767
CC3151 BRGA3  1  0.347450500075  0.307459952514
CC3151   SOD  1  0.294954293108  0.090610410351
CC3151   CLA  1  0.371504765465  0.162045623205
CC3151   PG0  1  0.360813980847  0.320014464673
CC3151   PG1  1  0.360813980847  0.320014464673
CC3151   PG2  1  0.360813980847  0.320014464673
CC3151  ALG1  1  0.347450500075  0.337324864189
CC3151   LPH  1  0.169270756447  0.000000000000
CC3151 CLGR1  1  0.334977918021  0.200657590935
CC3151 BRGR1  1  0.345668702638  0.236682781799
CC3151  IGR1  1  0.368832069310  0.301712530731
CC3151 SG2P1  1  0.355798221064  0.332305491450
CC3151 OG2S1  1  0.318906105146  0.157831660601
CC3151 SG2P2  1  0.352314807076  0.329421919951
CC3151 SEGD1  1  0.363041227642  0.330244580395
CC3151 BG201  1  0.396449929572  0.081561175077
CC3151 CC301  1  0.338541512893  0.041840000000
CC3151 CC3062  1  0.338541512893  0.041840000000
CC3151 CC311  1  0.338541512893  0.041840000000
CC3151 CC3161  1  0.338541512893  0.041840000000
CC3151 CC3162  1  0.338541512893  0.041840000000
CC3151 CC3163  1  0.338541512893  0.041840000000
CC3151 CC321  1  0.338541512893  0.041840000000
CC3151 CC3261  1  0.338541512893  0.041840000000
CC3151 CC3263  1  0.338541512893  0.041840000000
CC3151 CC331  1  0.338541512893  0.041840000000
CC3151 CC2O1  1  0.347450500075  0.138767581228
CC3151 CC2O2  1  0.347450500075  0.110698234855
CC3151 CC2O3  1  0.347450500075  0.125520000000
CC3151 CC2O4  1  0.329632525712  0.102486650838
CC3151 CC2O5  1  0.320723538531  0.130979917850
CC3151 OC2D1  1  0.293996576986  0.144938011577
CC3151 OC2D2  1  0.320723538531  0.144938011577
CC3151 OC2D3  1  0.293996576986  0.144938011577
CC3151 OC2D4  1  0.293996576986  0.144938011577
CC3151 OC3C61  1  0.316269044940  0.132309697301
CC3151 OC311  1  0.326514380198  0.183381431383
CC3151 NC2D1  1  0.307360057758  0.187114168357
CC3151  HCP1  1  0.189271432669  0.089736802707
CC3151  HCA1  1  0.288651184677  0.088756043175
CC3151  HCA2  1  0.288651184677  0.078275472531
CC3151  HCA3  1  0.288651184677  0.064818249282
CC3151 CC312  1  0.338541512893  0.041840000000
CC3151 CC322  1  0.338541512893  0.041840000000
CC3151  HCR1  1  0.240542653898  0.089736802707
CC3151 HCA3M  1  0.288651184677  0.064818249282
CC3151 CC321C  1  0.338541512893  0.041840000000
CC3151 CC321D  1  0.338541512893  0.041840000000
CC3151 CC311C  1  0.338541512893  0.041840000000
CC3151 CC311D  1  0.338541512893  0.041840000000
CC3151 OC301  1  0.316269044940  0.132309697301
CC3151 OC302  1  0.316269044940  0.132309697301
CC3151 HCP1M  1  0.189271432669  0.089736802707
CC3151 OC311M  1  0.326514380198  0.183381431383
CC3151 OC3C5M  1  0.316269044940  0.132309697301
CC3151 CC322C  1  0.338541512893  0.041840000000
CC3151 HCA2C2  1  0.285087589805  0.078275472531
CC3151 CC312C  1  0.338541512893  0.041840000000
CC3151 HCA1C2  1  0.288651184677  0.088756043175
CC3151 OC3C51  1  0.316269044940  0.132309697301
CC3151 CC3152  1  0.338541512893  0.041840000000
CC3151 CC3051  1  0.338541512893  0.041840000000
CC3151 CC3251  1  0.338541512893  0.041840000000
CC3151 CC3151  1  0.338541512893  0.041840000000
CC3151 CC3153  1  0.338541512893  0.041840000000
CC3151 OC2DP  1  0.320723538531  0.144938011577
CC3151 OC312  1  0.326959829558  0.163176000000
CC3151 OC30P  1  0.326959829558  0.163176000000
CC3151    PC  1  0.360813980847  0.320014464673
CC3151    SC  1  0.356359487256  0.286840588481
CC3151 CC312D  1  0.338541512893  0.041840000000
CC3151 OC303  1  0.316269044940  0.132309697301
CC3151 NC311  1  0.347450500075  0.088756043175
CC3151   HN1  1  0.189271432669  0.089736802707
CC3151   HN2  1  0.189271432669  0.089736802707
CC3151   HN3  1  0.267269615442  0.089736802707
CC3151   HN4  1  0.189271432669  0.089736802707
CC3151   HN5  1  0.189271432669  0.089736802707
CC3151   HN6  1  0.286869387241  0.062058748940
CC3151   HN7  1  0.286869387241  0.062058748940
CC3151   HN8  1  0.288651184677  0.070011711020
CC3151   HN9  1  0.288651184677  0.064818249282
CC3151   NN1  1  0.334087019303  0.187114168357
CC3151   NN2  1  0.334087019303  0.187114168357
CC3151  NN2B  1  0.334087019303  0.187114168357
CC3151  NN2G  1  0.334087019303  0.187114168357
CC3151  NN2U  1  0.334087019303  0.187114168357
CC3151   NN3  1  0.334087019303  0.187114168357
CC3151  NN3A  1  0.334087019303  0.187114168357
CC3151  NN3G  1  0.334087019303  0.187114168357
CC3151   NN4  1  0.334087019303  0.187114168357
CC3151   NN6  1  0.334087019303  0.187114168357
CC3151   ON1  1  0.320723538531  0.144938011577
CC3151  ON1C  1  0.320723538531  0.144938011577
CC3151   ON2  1  0.326959829558  0.163176000000
CC3151   ON3  1  0.320723538531  0.144938011577
CC3151   ON4  1  0.326959829558  0.163176000000
CC3151   ON5  1  0.326959829558  0.163176000000
CC3151   ON6  1  0.326959829558  0.163176000000
CC3151  ON6B  1  0.326959829558  0.163176000000
CC3151   CN1  1  0.338541512893  0.132309697301
CC3151  CN1T  1  0.338541512893  0.132309697301
CC3151   CN2  1  0.338541512893  0.132309697301
CC3151   CN3  1  0.338541512893  0.125520000000
CC3151  CN3T  1  0.338541512893  0.125520000000
CC3151   CN4  1  0.338541512893  0.114583559030
CC3151   CN5  1  0.338541512893  0.114583559030
CC3151  CN5G  1  0.338541512893  0.114583559030
CC3151   CN7  1  0.338541512893  0.041840000000
CC3151  CN7B  1  0.338541512893  0.041840000000
CC3151   CN8  1  0.338541512893  0.041840000000
CC3151  CN8B  1  0.338541512893  0.041840000000
CC3151   CN9  1  0.338541512893  0.041840000000
CC3151     P  1  0.360813980847  0.320014464673
CC3151    P2  1  0.360813980847  0.320014464673
CC3151    P3  1  0.360813980847  0.320014464673
CC3151    P4  1  0.360813980847  0.320014464673
CC3151   HOL  1  0.189271432669  0.089736802707
CC3151  HAL1  1  0.286869387241  0.062058748940
CC3151  HAL2  1  0.288651184677  0.070011711020
CC3151  HAL3  1  0.288651184677  0.064818249282
CC3151   HBL  1  0.286869387241  0.062058748940
CC3151   HCL  1  0.189271432669  0.089736802707
CC3151    HL  1  0.231633666716  0.089736802707
CC3151  HEL1  1  0.280633096214  0.073666921749
CC3151  HEL2  1  0.281523994932  0.067464972838
CC3151    CL  1  0.347450500075  0.110698234855
CC3151   CCL  1  0.347450500075  0.110698234855
CC3151  CTL1  1  0.338541512893  0.041840000000
CC3151  CTL2  1  0.338541512893  0.041840000000
CC3151  CTL3  1  0.338541512893  0.041840000000
CC3151  CTL5  1  0.338541512893  0.041840000000
CC3151  CEL1  1  0.355468588538  0.109105371453
CC3151  CEL2  1  0.354577689820  0.105847757841
CC3151  CRL1  1  0.338541512893  0.041840000000
CC3151  CRL2  1  0.338541512893  0.041840000000
CC3151   OBL  1  0.293996576986  0.144938011577
CC3151   OCL  1  0.320723538531  0.144938011577
CC3151   O2L  1  0.320723538531  0.144938011577
CC3151   OHL  1  0.326959829558  0.163176000000
CC3151   OSL  1  0.316269044940  0.132309697301
CC3151  OSLP  1  0.316269044940  0.132309697301
CC3151  NH3L  1  0.334087019303  0.187114168357
CC3151   NTL  1  0.334087019303  0.187114168357
CC3151    SL  1  0.356359487256  0.286840588481
CC3151    PL  1  0.360813980847  0.320014464673
CC3151 HCA1A  1  0.288651184677  0.088756043175
CC3151 HCA2A  1  0.288651184677  0.078275472531
CC3151 HCA3A  1  0.288651184677  0.064818249282
CC3151 CC30A  1  0.338541512893  0.041840000000
CC3151 CC31A  1  0.338541512893  0.041840000000
CC3151 CC32A  1  0.338541512893  0.041840000000
CC3151 CC33A  1  0.338541512893  0.041840000000
CC3151 CC326A  1  0.338541512893  0.041840000000
CC3151 HCA25A  1  0.285087589805  0.078275472531
CC3151 CC325A  1  0.338541512893  0.041840000000
CC3151 CC325B  1  0.338541512893  0.041840000000
CC3151 OC305A  1  0.316269044940  0.132309697301
CC3151 OC30A  1  0.316269044940  0.132309697301
CC3151  HSIO  1  0.189271432669  0.089736802707
CC3151  HSIA  1  0.286869387241  0.062058748940
CC3151   HAL  1  0.286869387241  0.062058748940
CC3151    AL  1  0.365268474438  0.337324864189
CC3151    SI  1  0.365268474438  0.324091246411
CC3151  SIH3  1  0.365268474438  0.324091246411
CC3151  OSIH  1  0.326959829558  0.163176000000
CC3151  OSIE  1  0.326959829558  0.163176000000
CC3151  OSIA  1  0.326959829558  0.163176000000
CC3151   OAL  1  0.326959829558  0.163176000000
CC3151    HT  1  0.189271432669  0.089736802707
CC3151    OT  1  0.326799467788  0.163176000000
CC3151   DUM  1  0.169270756447  0.000000000000
CC3151    CM  1  0.356359487256  0.138767581228
CC3151   CPA  1  0.329632525712  0.125520000000
CC3151   CPB  1  0.329632525712  0.125520000000
CC3151   CPM  1  0.329632525712  0.125520000000
CC3151   CST  1  0.308518226092  0.100764063435
CC3151  CT1X  1  0.338541512893  0.041840000000
CC3151  CT2X  1  0.338541512893  0.041840000000
CC3151  CT3X  1  0.338541512893  0.041840000000
CC3151    HB  1  0.286869387241  0.062058748940
CC3151   NPH  1  0.334087019303  0.187114168357
CC3151    OM  1  0.320723538531  0.144938011577
CC3151   OST  1  0.320010819556  0.169954883425
CC3151   POT  1  0.326403017859  0.123410269913
CC3151   CAL  1  0.291056611216  0.144938011577
CC3151    MG  1  0.274842254546  0.051243325419
CC3151   CES  1  0.356359487256  0.182376331798
CC3151    ZN  1  0.266378716724  0.209200000000
CC3151    FE  1  0.227179173126  0.000000000000
CC3151    HE  1  0.301123766731  0.061020452073
CC3151    NE  1  0.305578260322  0.122698965603
CC3151  CLAL  1  0.339272049842  0.072469005789
CC3151    AG  1  0.300901042052  0.893457908130
CC3151    AU  1  0.300722862308  0.962320000000
CC3151    CU  1  0.285800308779  0.908997471504
CC3151    NI  1  0.282949432881  0.994525446633
CC3151    PB  1  0.328073452955  0.716185437439
CC3151    PD  1  0.294842930769  1.037598257516
CC3151    PT  1  0.296001099102  1.168527606863
CC3151   CAP  1  0.346773417049  0.110698234855
CC3151    FA  1  0.320723538531  0.144938011577
CC3151    CN  1  0.325178032121  0.187114168357
CC3151    NC  1  0.334087019303  0.324091246411
CC3151   OCA  1  0.293996576986  0.144938011577
CC3151   COA  1  0.347450500075  0.138767581228
CC3151   CF1  1  0.338541512893  0.102486650838
CC3151   CF2  1  0.351904993665  0.085746484010
CC3151   CF3  1  0.374177461619  0.059170695450
CC3151   HF1  1  0.286869387241  0.070011711020
CC3151   HF2  1  0.285087589805  0.072469005789
CC3151    F1  1  0.314487247504  0.153729976257
CC3151    F2  1  0.314487247504  0.135577095411
CC3151    F3  1  0.311814551349  0.130309939452
CC3151    OX  1  0.320723538531  0.144938011577
CC3151    HX  1  0.189271432669  0.089736802707
CC3151  HPER  1  0.189271432669  0.089736802707
CC3151  OPER  1  0.318427692534  0.188901923946
CC3151   LIT  1  0.284864865125  0.020196198771
CC3151   RUB  1  0.338541512893  0.162045623205
CC3151   BAR  1  0.337650614175  0.162045623205
CC3151   CAD  1  0.290165712498  0.144938011577
CC3151  ON2B  1  0.326959829558  0.163176000000
CC3151    SP  1  0.365268474438  0.280671252536
CC3151   HNP  1  0.290272620344  0.072469005789
CC3151  HNE1  1  0.280633096214  0.073666921749
CC3151  HNE2  1  0.281523994932  0.067464972838
CC3151  CN3D  1  0.338541512893  0.125520000000
CC3151  CNE1  1  0.355468588538  0.109105371453
CC3151  CNE2  1  0.354577689820  0.105847757841
CC3151   CNA  1  0.346773417049  0.110698234855
CC3151  CNA2  1  0.338541512893  0.110698234855
CC3151   CNG  1  0.347450500075  0.138767581228
CC3151  NN1C  1  0.334087019303  0.187114168357
CC3151  NN2C  1  0.334087019303  0.187114168357
CC3151  NN3I  1  0.334087019303  0.187114168357
CC3151   NNG  1  0.334087019303  0.187114168357
CC3151   FNA  1  0.320723538531  0.144938011577
CC3151  ON2M  1  0.316269044940  0.132309697301
CC3151   CN6  1  0.338541512893  0.041840000000
CC3151  CN7E  1  0.338541512893  0.041840000000
CC3151  CT2P  1  0.338541512893  0.041840000000
CC3151  CTD1  1  0.338541512893  0.041840000000
CC3151  CPD1  1  0.338541512893  0.041840000000
CC3151  CC1A  1  0.355468588538  0.109105371453
CC3151  CC1B  1  0.355468588538  0.109105371453
CC3151   CC2  1  0.354577689820  0.105847757841
CC3151   NS1  1  0.334087019303  0.187114168357
CC3151   NS2  1  0.334087019303  0.187114168357
CC3151   NHL  1  0.307360057758  0.187114168357
CC3151  CTO1  1  0.338541512893  0.041840000000
CC3151  CEL3  1  0.355468588538  0.109105371453
CC3151  CTO2  1  0.338541512893  0.041840000000
CC3151  HN3B  1  0.249451641079  0.089736802707
CC3151  CN1A  1  0.347450500075  0.110698234855
CC3151  CN3A  1  0.329632525712  0.177512086349
CC3151  CN3B  1  0.329632525712  0.177512086349
CC3151  CN3C  1  0.329632525712  0.177512086349
CC3153     C  1  0.347450500075  0.138767581228
CC3153    CA  1  0.346773417049  0.110698234855
CC3153    CC  1  0.347450500075  0.110698234855
CC3153    CD  1  0.347450500075  0.110698234855
CC3153   CE1  1  0.355468588538  0.109105371453
CC3153   CE2  1  0.354577689820  0.105847757841
CC3153   CP1  1  0.338541512893  0.041840000000
CC3153   CP2  1  0.338541512893  0.041840000000
CC3153   CP3  1  0.338541512893  0.041840000000
CC3153  CPH1  1  0.329632525712  0.093557084179
CC3153  CPH2  1  0.329632525712  0.093557084179
CC3153    CS  1  0.365268474438  0.138767581228
CC3153   CPT  1  0.334977918021  0.131646486622
CC3153    CY  1  0.346559601357  0.113045454929
CC3153   CAI  1  0.346559601357  0.113045454929
CC3153    CT  1  0.338541512893  0.041840000000
CC3153   CT1  1  0.338541512893  0.041840000000
CC3153   CT2  1  0.338541512893  0.041840000000
CC3153  CT2A  1  0.338541512893  0.041840000000
CC3153   CT3  1  0.338541512893  0.041840000000
CC3153    C3  1  0.371950214824  0.059170695450
CC3153     H  1  0.189271432669  0.089736802707
CC3153    HA  1  0.286869387241  0.062058748940
CC3153   HB1  1  0.286869387241  0.062058748940
CC3153   HB2  1  0.288651184677  0.070011711020
CC3153   HE1  1  0.280633096214  0.073666921749
CC3153   HE2  1  0.281523994932  0.067464972838
CC3153    HC  1  0.189271432669  0.089736802707
CC3153    HP  1  0.290272620344  0.072469005789
CC3153   HR1  1  0.249451641079  0.089736802707
CC3153   HR2  1  0.231633666716  0.089736802707
CC3153   HR3  1  0.300054688270  0.036952087465
CC3153    HS  1  0.209361198763  0.132309697301
CC3153   HA1  1  0.288651184677  0.088756043175
CC3153   HA2  1  0.288651184677  0.077149148019
CC3153   HA3  1  0.288651184677  0.064818249282
CC3153     N  1  0.334087019303  0.004184000000
CC3153   NC2  1  0.334087019303  0.187114168357
CC3153   NH1  1  0.307360057758  0.187114168357
CC3153   NH2  1  0.334087019303  0.187114168357
CC3153   NH3  1  0.334087019303  0.187114168357
CC3153    NP  1  0.334087019303  0.187114168357
CC3153   NR1  1  0.334087019303  0.187114168357
CC3153   NR2  1  0.334087019303  0.187114168357
CC3153   NR3  1  0.334087019303  0.187114168357
CC3153    NY  1  0.334087019303  0.187114168357
CC3153     O  1  0.293996576986  0.144938011577
CC3153    OB  1  0.293996576986  0.144938011577
CC3153    OC  1  0.320723538531  0.144938011577
CC3153   OH1  1  0.326959829558  0.163176000000
CC3153    OS  1  0.326959829558  0.163176000000
CC3153     S  1  0.347450500075  0.280671252536
CC3153    SM  1  0.345223253279  0.257919081884
CC3153    SS  1  0.365268474438  0.286840588481
CC3153  HGA1  1  0.288651184677  0.088756043175
CC3153  HGA2  1  0.288651184677  0.078275472531
CC3153  HGA3  1  0.288651184677  0.064818249282
CC3153  HGA4  1  0.280633096214  0.073666921749
CC3153  HGA5  1  0.281523994932  0.067464972838
CC3153  HGA6  1  0.286869387241  0.070011711020
CC3153  HGA7  1  0.285087589805  0.072469005789
CC3153 HGAAM0  1  0.283305792369  0.070011711020
CC3153 HGAAM1  1  0.283305792369  0.070011711020
CC3153 HGAAM2  1  0.281523994932  0.083680000000
CC3153  HGP1  1  0.189271432669  0.089736802707
CC3153  HGP2  1  0.189271432669  0.089736802707
CC3153  HGP3  1  0.209361198763  0.132309697301
CC3153  HGP4  1  0.189271432669  0.089736802707
CC3153  HGP5  1  0.231633666716  0.089736802707
CC3153 HGPAM1  1  0.247224394284  0.039692909190
CC3153 HGPAM2  1  0.247224394284  0.041840000000
CC3153 HGPAM3  1  0.246778944925  0.045833423612
CC3153 HGR51  1  0.290272620344  0.072469005789
CC3153 HGR52  1  0.249451641079  0.089736802707
CC3153 HGR53  1  0.231633666716  0.089736802707
CC3153 HGR61  1  0.290272620344  0.072469005789
CC3153 HGR62  1  0.267269615442  0.089736802707
CC3153 HGR63  1  0.249451641079  0.089736802707
CC3153 HGR71  1  0.290272620344  0.072469005789
CC3153 HGTIP3  1  0.189271432669  0.089736802707
CC3153 CG1T1  1  0.333196120584  0.170981810495
CC3153 CG1T2  1  0.346782326036  0.134409982486
CC3153 CG1N1  1  0.335868816739  0.177512086349
CC3153 CG2D1  1  0.355468588538  0.109105371453
CC3153 CG2D2  1  0.354577689820  0.105847757841
CC3153 CG2D1O  1  0.355468588538  0.109105371453
CC3153 CG2D2O  1  0.355468588538  0.109105371453
CC3153 CG2DC1  1  0.355468588538  0.109105371453
CC3153 CG2DC2  1  0.355468588538  0.109105371453
CC3153 CG2DC3  1  0.354577689820  0.105847757841
CC3153 CG2N1  1  0.347450500075  0.138767581228
CC3153 CG2N2  1  0.347450500075  0.138767581228
CC3153 CG2O1  1  0.347450500075  0.138767581228
CC3153 CG2O2  1  0.320723538531  0.130979917850
CC3153 CG2O3  1  0.347450500075  0.110698234855
CC3153 CG2O4  1  0.329632525712  0.102486650838
CC3153 CG2O5  1  0.347450500075  0.125520000000
CC3153 CG2O6  1  0.347450500075  0.110698234855
CC3153 CG2O7  1  0.308518226092  0.100764063435
CC3153 CG2R51  1  0.356359487256  0.093557084179
CC3153 CG2R52  1  0.365268474438  0.059170695450
CC3153 CG2R53  1  0.365268474438  0.059170695450
CC3153 CG2R57  1  0.356359487256  0.093557084179
CC3153 CG25C1  1  0.355468588538  0.109105371453
CC3153 CG25C2  1  0.355468588538  0.109105371453
CC3153 CG251O  1  0.355468588538  0.109105371453
CC3153 CG252O  1  0.355468588538  0.109105371453
CC3153 CG2R61  1  0.346773417049  0.110698234855
CC3153 CG2R62  1  0.338541512893  0.125520000000
CC3153 CG2R63  1  0.338541512893  0.132309697301
CC3153 CG2R64  1  0.356359487256  0.083680000000
CC3153 CG2R66  1  0.338541512893  0.110698234855
CC3153 CG2R67  1  0.346773417049  0.110698234855
CC3153 CG2RC0  1  0.334977918021  0.131646486622
CC3153 CG2R71  1  0.346987232741  0.108300154755
CC3153 CG2RC7  1  0.334977918021  0.131646486622
CC3153 CG301  1  0.338541512893  0.041840000000
CC3153 CG302  1  0.374177461619  0.059170695450
CC3153 CG311  1  0.338541512893  0.041840000000
CC3153 CG312  1  0.351904993665  0.085746484010
CC3153 CG314  1  0.338541512893  0.041840000000
CC3153 CG321  1  0.338541512893  0.041840000000
CC3153 CG322  1  0.338541512893  0.102486650838
CC3153 CG323  1  0.365268474438  0.138767581228
CC3153 CG324  1  0.338541512893  0.041840000000
CC3153 CG331  1  0.338541512893  0.041840000000
CC3153 CG334  1  0.338541512893  0.041840000000
CC3153 CG3C50  1  0.338541512893  0.041840000000
CC3153 CG3C51  1  0.338541512893  0.041840000000
CC3153 CG3C52  1  0.338541512893  0.041840000000
CC3153 CG3C53  1  0.338541512893  0.041840000000
CC3153 CG3C54  1  0.338541512893  0.041840000000
CC3153 CG3C31  1  0.338541512893  0.041840000000
CC3153 CG3C41  1  0.338541512893  0.041840000000
CC3153 CG3RC1  1  0.338541512893  0.041840000000
CC3153 CG3AM0  1  0.344777803920  0.110698234855
CC3153 CG3AM1  1  0.345668702638  0.116852760686
CC3153 CG3AM2  1  0.346559601357  0.118341390899
CC3153 NG1T1  1  0.328741626994  0.177512086349
CC3153 NG2D1  1  0.334087019303  0.187114168357
CC3153 NG2S0  1  0.334087019303  0.004184000000
CC3153 NG2S1  1  0.307360057758  0.187114168357
CC3153 NG2S2  1  0.334087019303  0.187114168357
CC3153 NG2S3  1  0.334087019303  0.187114168357
CC3153 NG2O1  1  0.334087019303  0.187114168357
CC3153 NG2P1  1  0.334087019303  0.187114168357
CC3153 NG2R43  1  0.334087019303  0.187114168357
CC3153 NG2R50  1  0.334087019303  0.187114168357
CC3153 NG2R51  1  0.334087019303  0.187114168357
CC3153 NG2R52  1  0.334087019303  0.187114168357
CC3153 NG2R53  1  0.334087019303  0.187114168357
CC3153 NG2R57  1  0.334087019303  0.187114168357
CC3153 NG2R60  1  0.337650614175  0.102486650838
CC3153 NG2R61  1  0.334087019303  0.187114168357
CC3153 NG2R62  1  0.352795892384  0.093557084179
CC3153 NG2R67  1  0.334087019303  0.187114168357
CC3153 NG2RC0  1  0.334087019303  0.187114168357
CC3153 NG301  1  0.347450500075  0.078275472531
CC3153 NG311  1  0.347450500075  0.088756043175
CC3153 NG321  1  0.346559601357  0.102486650838
CC3153 NG331  1  0.345668702638  0.110698234855
CC3153 NG3C51  1  0.334087019303  0.187114168357
CC3153 NG3N1  1  0.351904993665  0.102486650838
CC3153 NG3P0  1  0.334087019303  0.187114168357
CC3153 NG3P1  1  0.334087019303  0.187114168357
CC3153 NG3P2  1  0.334087019303  0.187114168357
CC3153 NG3P3  1  0.334087019303  0.187114168357
CC3153 OG2D1  1  0.293996576986  0.144938011577
CC3153 OG2D2  1  0.320723538531  0.144938011577
CC3153 OG2D3  1  0.293996576986  0.144938011577
CC3153 OG2D4  1  0.320723538531  0.144938011577
CC3153 OG2D5  1  0.320010819556  0.169954883425
CC3153 OG2N1  1  0.320723538531  0.144938011577
CC3153 OG2P1  1  0.320723538531  0.144938011577
CC3153 OG2R50  1  0.320723538531  0.144938011577
CC3153 OG3R60  1  0.316269044940  0.132309697301
CC3153 OG301  1  0.316269044940  0.132309697301
CC3153 OG302  1  0.316269044940  0.132309697301
CC3153 OG303  1  0.316269044940  0.132309697301
CC3153 OG304  1  0.316269044940  0.132309697301
CC3153 OG311  1  0.326514380198  0.183381431383
CC3153 OG312  1  0.325178032121  0.144938011577
CC3153 OG3C31  1  0.316269044940  0.132309697301
CC3153 OG3C51  1  0.316269044940  0.132309697301
CC3153 OG3C61  1  0.316269044940  0.132309697301
CC3153 OGTIP3  1  0.326799467788  0.163176000000
CC3153 SG2D1  1  0.351904993665  0.314496560236
CC3153 SG2R50  1  0.347450500075  0.280671252536
CC3153 SG311  1  0.347450500075  0.280671252536
CC3153 SG301  1  0.345223253279  0.257919081884
CC3153 SG302  1  0.365268474438  0.286840588481
CC3153 SG3O1  1  0.356359487256  0.286840588481
CC3153 SG3O2  1  0.347450500075  0.247528778125
CC3153 SG3O3  1  0.347450500075  0.247528778125
CC3153  FGA1  1  0.314487247504  0.153729976257
CC3153  FGA2  1  0.314487247504  0.135577095411
CC3153  FGA3  1  0.311814551349  0.130309939452
CC3153  FGP1  1  0.311814551349  0.130309939452
CC3153  FGR1  1  0.320723538531  0.144938011577
CC3153 CLGA1  1  0.339432411611  0.245040988571
CC3153 CLGA3  1  0.339432411611  0.232955260941
CC3153 BRGA1  1  0.344777803920  0.289876023155
CC3153 BRGA2  1  0.351904993665  0.304599797767
CC3153 BRGA3  1  0.347450500075  0.307459952514
CC3153   SOD  1  0.294954293108  0.090610410351
CC3153   CLA  1  0.371504765465  0.162045623205
CC3153   PG0  1  0.360813980847  0.320014464673
CC3153   PG1  1  0.360813980847  0.320014464673
CC3153   PG2  1  0.360813980847  0.320014464673
CC3153  ALG1  1  0.347450500075  0.337324864189
CC3153   LPH  1  0.169270756447  0.000000000000
CC3153 CLGR1  1  0.334977918021  0.200657590935
CC3153 BRGR1  1  0.345668702638  0.236682781799
CC3153  IGR1  1  0.368832069310  0.301712530731
CC3153 SG2P1  1  0.355798221064  0.332305491450
CC3153 OG2S1  1  0.318906105146  0.157831660601
CC3153 SG2P2  1  0.352314807076  0.329421919951
CC3153 SEGD1  1  0.363041227642  0.330244580395
CC3153 BG201  1  0.396449929572  0.081561175077
CC3153 CC301  1  0.338541512893  0.041840000000
CC3153 CC3062  1  0.338541512893  0.041840000000
CC3153 CC311  1  0.338541512893  0.041840000000
CC3153 CC3161  1  0.338541512893  0.041840000000
CC3153 CC3162  1  0.338541512893  0.041840000000
CC3153 CC3163  1  0.338541512893  0.041840000000
CC3153 CC321  1  0.338541512893  0.041840000000
CC3153 CC3261  1  0.338541512893  0.041840000000
CC3153 CC3263  1  0.338541512893  0.041840000000
CC3153 CC331  1  0.338541512893  0.041840000000
CC3153 CC2O1  1  0.347450500075  0.138767581228
CC3153 CC2O2  1  0.347450500075  0.110698234855
CC3153 CC2O3  1  0.347450500075  0.125520000000
CC3153 CC2O4  1  0.329632525712  0.102486650838
CC3153 CC2O5  1  0.320723538531  0.130979917850
CC3153 OC2D1  1  0.293996576986  0.144938011577
CC3153 OC2D2  1  0.320723538531  0.144938011577
CC3153 OC2D3  1  0.293996576986  0.144938011577
CC3153 OC2D4  1  0.293996576986  0.144938011577
CC3153 OC3C61  1  0.316269044940  0.132309697301
CC3153 OC311  1  0.326514380198  0.183381431383
CC3153 NC2D1  1  0.307360057758  0.187114168357
CC3153  HCP1  1  0.189271432669  0.089736802707
CC3153  HCA1  1  0.288651184677  0.088756043175
CC3153  HCA2  1  0.288651184677  0.078275472531
CC3153  HCA3  1  0.288651184677  0.064818249282
CC3153 CC312  1  0.338541512893  0.041840000000
CC3153 CC322  1  0.338541512893  0.041840000000
CC3153  HCR1  1  0.240542653898  0.089736802707
CC3153 HCA3M  1  0.288651184677  0.064818249282
CC3153 CC321C  1  0.338541512893  0.041840000000
CC3153 CC321D  1  0.338541512893  0.041840000000
CC3153 CC311C  1  0.338541512893  0.041840000000
CC3153 CC311D  1  0.338541512893  0.041840000000
CC3153 OC301  1  0.316269044940  0.132309697301
CC3153 OC302  1  0.316269044940  0.132309697301
CC3153 HCP1M  1  0.189271432669  0.089736802707
CC3153 OC311M  1  0.326514380198  0.183381431383
CC3153 OC3C5M  1  0.316269044940  0.132309697301
CC3153 CC322C  1  0.338541512893  0.041840000000
CC3153 HCA2C2  1  0.285087589805  0.078275472531
CC3153 CC312C  1  0.338541512893  0.041840000000
CC3153 HCA1C2  1  0.288651184677  0.088756043175
CC3153 OC3C51  1  0.316269044940  0.132309697301
CC3153 CC3152  1  0.338541512893  0.041840000000
CC3153 CC3051  1  0.338541512893  0.041840000000
CC3153 CC3251  1  0.338541512893  0.041840000000
CC3153 CC3151  1  0.338541512893  0.041840000000
CC3153 CC3153  1  0.338541512893  0.041840000000
CC3153 OC2DP  1  0.320723538531  0.144938011577
CC3153 OC312  1  0.326959829558  0.163176000000
CC3153 OC30P  1  0.326959829558  0.163176000000
CC3153    PC  1  0.360813980847  0.320014464673
CC3153    SC  1  0.356359487256  0.286840588481
CC3153 CC312D  1  0.338541512893  0.041840000000
CC3153 OC303  1  0.316269044940  0.132309697301
CC3153 NC311  1  0.347450500075  0.088756043175
CC3153   HN1  1  0.189271432669  0.089736802707
CC3153   HN2  1  0.189271432669  0.089736802707
CC3153   HN3  1  0.267269615442  0.089736802707
CC3153   HN4  1  0.189271432669  0.089736802707
CC3153   HN5  1  0.189271432669  0.089736802707
CC3153   HN6  1  0.286869387241  0.062058748940
CC3153   HN7  1  0.286869387241  0.062058748940
CC3153   HN8  1  0.288651184677  0.070011711020
CC3153   HN9  1  0.288651184677  0.064818249282
CC3153   NN1  1  0.334087019303  0.187114168357
CC3153   NN2  1  0.334087019303  0.187114168357
CC3153  NN2B  1  0.334087019303  0.187114168357
CC3153  NN2G  1  0.334087019303  0.187114168357
CC3153  NN2U  1  0.334087019303  0.187114168357
CC3153   NN3  1  0.334087019303  0.187114168357
CC3153  NN3A  1  0.334087019303  0.187114168357
CC3153  NN3G  1  0.334087019303  0.187114168357
CC3153   NN4  1  0.334087019303  0.187114168357
CC3153   NN6  1  0.334087019303  0.187114168357
CC3153   ON1  1  0.320723538531  0.144938011577
CC3153  ON1C  1  0.320723538531  0.144938011577
CC3153   ON2  1  0.326959829558  0.163176000000
CC3153   ON3  1  0.320723538531  0.144938011577
CC3153   ON4  1  0.326959829558  0.163176000000
CC3153   ON5  1  0.326959829558  0.163176000000
CC3153   ON6  1  0.326959829558  0.163176000000
CC3153  ON6B  1  0.326959829558  0.163176000000
CC3153   CN1  1  0.338541512893  0.132309697301
CC3153  CN1T  1  0.338541512893  0.132309697301
CC3153   CN2  1  0.338541512893  0.132309697301
CC3153   CN3  1  0.338541512893  0.125520000000
CC3153  CN3T  1  0.338541512893  0.125520000000
CC3153   CN4  1  0.338541512893  0.114583559030
CC3153   CN5  1  0.338541512893  0.114583559030
CC3153  CN5G  1  0.338541512893  0.114583559030
CC3153   CN7  1  0.338541512893  0.041840000000
CC3153  CN7B  1  0.338541512893  0.041840000000
CC3153   CN8  1  0.338541512893  0.041840000000
CC3153  CN8B  1  0.338541512893  0.041840000000
CC3153   CN9  1  0.338541512893  0.041840000000
CC3153     P  1  0.360813980847  0.320014464673
CC3153    P2  1  0.360813980847  0.320014464673
CC3153    P3  1  0.360813980847  0.320014464673
CC3153    P4  1  0.360813980847  0.320014464673
CC3153   HOL  1  0.189271432669  0.089736802707
CC3153  HAL1  1  0.286869387241  0.062058748940
CC3153  HAL2  1  0.288651184677  0.070011711020
CC3153  HAL3  1  0.288651184677  0.064818249282
CC3153   HBL  1  0.286869387241  0.062058748940
CC3153   HCL  1  0.189271432669  0.089736802707
CC3153    HL  1  0.231633666716  0.089736802707
CC3153  HEL1  1  0.280633096214  0.073666921749
CC3153  HEL2  1  0.281523994932  0.067464972838
CC3153    CL  1  0.347450500075  0.110698234855
CC3153   CCL  1  0.347450500075  0.110698234855
CC3153  CTL1  1  0.338541512893  0.041840000000
CC3153  CTL2  1  0.338541512893  0.041840000000
CC3153  CTL3  1  0.338541512893  0.041840000000
CC3153  CTL5  1  0.338541512893  0.041840000000
CC3153  CEL1  1  0.355468588538  0.109105371453
CC3153  CEL2  1  0.354577689820  0.105847757841
CC3153  CRL1  1  0.338541512893  0.041840000000
CC3153  CRL2  1  0.338541512893  0.041840000000
CC3153   OBL  1  0.293996576986  0.144938011577
CC3153   OCL  1  0.320723538531  0.144938011577
CC3153   O2L  1  0.320723538531  0.144938011577
CC3153   OHL  1  0.326959829558  0.163176000000
CC3153   OSL  1  0.316269044940  0.132309697301
CC3153  OSLP  1  0.316269044940  0.132309697301
CC3153  NH3L  1  0.334087019303  0.187114168357
CC3153   NTL  1  0.334087019303  0.187114168357
CC3153    SL  1  0.356359487256  0.286840588481
CC3153    PL  1  0.360813980847  0.320014464673
CC3153 HCA1A  1  0.288651184677  0.088756043175
CC3153 HCA2A  1  0.288651184677  0.078275472531
CC3153 HCA3A  1  0.288651184677  0.064818249282
CC3153 CC30A  1  0.338541512893  0.041840000000
CC3153 CC31A  1  0.338541512893  0.041840000000
CC3153 CC32A  1  0.338541512893  0.041840000000
CC3153 CC33A  1  0.338541512893  0.041840000000
CC3153 CC326A  1  0.338541512893  0.041840000000
CC3153 HCA25A  1  0.285087589805  0.078275472531
CC3153 CC325A  1  0.338541512893  0.041840000000
CC3153 CC325B  1  0.338541512893  0.041840000000
CC3153 OC305A  1  0.316269044940  0.132309697301
CC3153 OC30A  1  0.316269044940  0.132309697301
CC3153  HSIO  1  0.189271432669  0.089736802707
CC3153  HSIA  1  0.286869387241  0.062058748940
CC3153   HAL  1  0.286869387241  0.062058748940
CC3153    AL  1  0.365268474438  0.337324864189
CC3153    SI  1  0.365268474438  0.324091246411
CC3153  SIH3  1  0.365268474438  0.324091246411
CC3153  OSIH  1  0.326959829558  0.163176000000
CC3153  OSIE  1  0.326959829558  0.163176000000
CC3153  OSIA  1  0.326959829558  0.163176000000
CC3153   OAL  1  0.326959829558  0.163176000000
CC3153    HT  1  0.189271432669  0.089736802707
CC3153    OT  1  0.326799467788  0.163176000000
CC3153   DUM  1  0.169270756447  0.000000000000
CC3153    CM  1  0.356359487256  0.138767581228
CC3153   CPA  1  0.329632525712  0.125520000000
CC3153   CPB  1  0.329632525712  0.125520000000
CC3153   CPM  1  0.329632525712  0.125520000000
CC3153   CST  1  0.308518226092  0.100764063435
CC3153  CT1X  1  0.338541512893  0.041840000000
CC3153  CT2X  1  0.338541512893  0.041840000000
CC3153  CT3X  1  0.338541512893  0.041840000000
CC3153    HB  1  0.286869387241  0.062058748940
CC3153   NPH  1  0.334087019303  0.187114168357
CC3153    OM  1  0.320723538531  0.144938011577
CC3153   OST  1  0.320010819556  0.169954883425
CC3153   POT  1  0.326403017859  0.123410269913
CC3153   CAL  1  0.291056611216  0.144938011577
CC3153    MG  1  0.274842254546  0.051243325419
CC3153   CES  1  0.356359487256  0.182376331798
CC3153    ZN  1  0.266378716724  0.209200000000
CC3153    FE  1  0.227179173126  0.000000000000
CC3153    HE  1  0.301123766731  0.061020452073
CC3153    NE  1  0.305578260322  0.122698965603
CC3153  CLAL  1  0.339272049842  0.072469005789
CC3153    AG  1  0.300901042052  0.893457908130
CC3153    AU  1  0.300722862308  0.962320000000
CC3153    CU  1  0.285800308779  0.908997471504
CC3153    NI  1  0.282949432881  0.994525446633
CC3153    PB  1  0.328073452955  0.716185437439
CC3153    PD  1  0.294842930769  1.037598257516
CC3153    PT  1  0.296001099102  1.168527606863
CC3153   CAP  1  0.346773417049  0.110698234855
CC3153    FA  1  0.320723538531  0.144938011577
CC3153    CN  1  0.325178032121  0.187114168357
CC3153    NC  1  0.334087019303  0.324091246411
CC3153   OCA  1  0.293996576986  0.144938011577
CC3153   COA  1  0.347450500075  0.138767581228
CC3153   CF1  1  0.338541512893  0.102486650838
CC3153   CF2  1  0.351904993665  0.085746484010
CC3153   CF3  1  0.374177461619  0.059170695450
CC3153   HF1  1  0.286869387241  0.070011711020
CC3153   HF2  1  0.285087589805  0.072469005789
CC3153    F1  1  0.314487247504  0.153729976257
CC3153    F2  1  0.314487247504  0.135577095411
CC3153    F3  1  0.311814551349  0.130309939452
CC3153    OX  1  0.320723538531  0.144938011577
CC3153    HX  1  0.189271432669  0.089736802707
CC3153  HPER  1  0.189271432669  0.089736802707
CC3153  OPER  1  0.318427692534  0.188901923946
CC3153   LIT  1  0.284864865125  0.020196198771
CC3153   RUB  1  0.338541512893  0.162045623205
CC3153   BAR  1  0.337650614175  0.162045623205
CC3153   CAD  1  0.290165712498  0.144938011577
CC3153  ON2B  1  0.326959829558  0.163176000000
CC3153    SP  1  0.365268474438  0.280671252536
CC3153   HNP  1  0.290272620344  0.072469005789
CC3153  HNE1  1  0.280633096214  0.073666921749
CC3153  HNE2  1  0.281523994932  0.067464972838
CC3153  CN3D  1  0.338541512893  0.125520000000
CC3153  CNE1  1  0.355468588538  0.109105371453
CC3153  CNE2  1  0.354577689820  0.105847757841
CC3153   CNA  1  0.346773417049  0.110698234855
CC3153  CNA2  1  0.338541512893  0.110698234855
CC3153   CNG  1  0.347450500075  0.138767581228
CC3153  NN1C  1  0.334087019303  0.187114168357
CC3153  NN2C  1  0.334087019303  0.187114168357
CC3153  NN3I  1  0.334087019303  0.187114168357
CC3153   NNG  1  0.334087019303  0.187114168357
CC3153   FNA  1  0.320723538531  0.144938011577
CC3153  ON2M  1  0.316269044940  0.132309697301
CC3153   CN6  1  0.338541512893  0.041840000000
CC3153  CN7E  1  0.338541512893  0.041840000000
CC3153  CT2P  1  0.338541512893  0.041840000000
CC3153  CTD1  1  0.338541512893  0.041840000000
CC3153  CPD1  1  0.338541512893  0.041840000000
CC3153  CC1A  1  0.355468588538  0.109105371453
CC3153  CC1B  1  0.355468588538  0.109105371453
CC3153   CC2  1  0.354577689820  0.105847757841
CC3153   NS1  1  0.334087019303  0.187114168357
CC3153   NS2  1  0.334087019303  0.187114168357
CC3153   NHL  1  0.307360057758  0.187114168357
CC3153  CTO1  1  0.338541512893  0.041840000000
CC3153  CEL3  1  0.355468588538  0.109105371453
CC3153  CTO2  1  0.338541512893  0.041840000000
CC3153  HN3B  1  0.249451641079  0.089736802707
CC3153  CN1A  1  0.347450500075  0.110698234855
CC3153  CN3A  1  0.329632525712  0.177512086349
CC3153  CN3B  1  0.329632525712  0.177512086349
CC3153  CN3C  1  0.329632525712  0.177512086349
CC312D     C  1  0.347450500075  0.138767581228
CC312D    CA  1  0.346773417049  0.110698234855
CC312D    CC  1  0.347450500075  0.110698234855
CC312D    CD  1  0.347450500075  0.110698234855
CC312D   CE1  1  0.355468588538  0.109105371453
CC312D   CE2  1  0.354577689820  0.105847757841
CC312D   CP1  1  0.338541512893  0.041840000000
CC312D   CP2  1  0.338541512893  0.041840000000
CC312D   CP3  1  0.338541512893  0.041840000000
CC312D  CPH1  1  0.329632525712  0.093557084179
CC312D  CPH2  1  0.329632525712  0.093557084179
CC312D    CS  1  0.365268474438  0.138767581228
CC312D   CPT  1  0.334977918021  0.131646486622
CC312D    CY  1  0.346559601357  0.113045454929
CC312D   CAI  1  0.346559601357  0.113045454929
CC312D    CT  1  0.338541512893  0.041840000000
CC312D   CT1  1  0.338541512893  0.041840000000
CC312D   CT2  1  0.338541512893  0.041840000000
CC312D  CT2A  1  0.338541512893  0.041840000000
CC312D   CT3  1  0.338541512893  0.041840000000
CC312D    C3  1  0.371950214824  0.059170695450
CC312D     H  1  0.189271432669  0.089736802707
CC312D    HA  1  0.286869387241  0.062058748940
CC312D   HB1  1  0.286869387241  0.062058748940
CC312D   HB2  1  0.288651184677  0.070011711020
CC312D   HE1  1  0.280633096214  0.073666921749
CC312D   HE2  1  0.281523994932  0.067464972838
CC312D    HC  1  0.189271432669  0.089736802707
CC312D    HP  1  0.290272620344  0.072469005789
CC312D   HR1  1  0.249451641079  0.089736802707
CC312D   HR2  1  0.231633666716  0.089736802707
CC312D   HR3  1  0.300054688270  0.036952087465
CC312D    HS  1  0.209361198763  0.132309697301
CC312D   HA1  1  0.288651184677  0.088756043175
CC312D   HA2  1  0.288651184677  0.077149148019
CC312D   HA3  1  0.288651184677  0.064818249282
CC312D     N  1  0.334087019303  0.004184000000
CC312D   NC2  1  0.334087019303  0.187114168357
CC312D   NH1  1  0.307360057758  0.187114168357
CC312D   NH2  1  0.334087019303  0.187114168357
CC312D   NH3  1  0.334087019303  0.187114168357
CC312D    NP  1  0.334087019303  0.187114168357
CC312D   NR1  1  0.334087019303  0.187114168357
CC312D   NR2  1  0.334087019303  0.187114168357
CC312D   NR3  1  0.334087019303  0.187114168357
CC312D    NY  1  0.334087019303  0.187114168357
CC312D     O  1  0.293996576986  0.144938011577
CC312D    OB  1  0.293996576986  0.144938011577
CC312D    OC  1  0.320723538531  0.144938011577
CC312D   OH1  1  0.326959829558  0.163176000000
CC312D    OS  1  0.326959829558  0.163176000000
CC312D     S  1  0.347450500075  0.280671252536
CC312D    SM  1  0.345223253279  0.257919081884
CC312D    SS  1  0.365268474438  0.286840588481
CC312D  HGA1  1  0.288651184677  0.088756043175
CC312D  HGA2  1  0.288651184677  0.078275472531
CC312D  HGA3  1  0.288651184677  0.064818249282
CC312D  HGA4  1  0.280633096214  0.073666921749
CC312D  HGA5  1  0.281523994932  0.067464972838
CC312D  HGA6  1  0.286869387241  0.070011711020
CC312D  HGA7  1  0.285087589805  0.072469005789
CC312D HGAAM0  1  0.283305792369  0.070011711020
CC312D HGAAM1  1  0.283305792369  0.070011711020
CC312D HGAAM2  1  0.281523994932  0.083680000000
CC312D  HGP1  1  0.189271432669  0.089736802707
CC312D  HGP2  1  0.189271432669  0.089736802707
CC312D  HGP3  1  0.209361198763  0.132309697301
CC312D  HGP4  1  0.189271432669  0.089736802707
CC312D  HGP5  1  0.231633666716  0.089736802707
CC312D HGPAM1  1  0.247224394284  0.039692909190
CC312D HGPAM2  1  0.247224394284  0.041840000000
CC312D HGPAM3  1  0.246778944925  0.045833423612
CC312D HGR51  1  0.290272620344  0.072469005789
CC312D HGR52  1  0.249451641079  0.089736802707
CC312D HGR53  1  0.231633666716  0.089736802707
CC312D HGR61  1  0.290272620344  0.072469005789
CC312D HGR62  1  0.267269615442  0.089736802707
CC312D HGR63  1  0.249451641079  0.089736802707
CC312D HGR71  1  0.290272620344  0.072469005789
CC312D HGTIP3  1  0.189271432669  0.089736802707
CC312D CG1T1  1  0.333196120584  0.170981810495
CC312D CG1T2  1  0.346782326036  0.134409982486
CC312D CG1N1  1  0.335868816739  0.177512086349
CC312D CG2D1  1  0.355468588538  0.109105371453
CC312D CG2D2  1  0.354577689820  0.105847757841
CC312D CG2D1O  1  0.355468588538  0.109105371453
CC312D CG2D2O  1  0.355468588538  0.109105371453
CC312D CG2DC1  1  0.355468588538  0.109105371453
CC312D CG2DC2  1  0.355468588538  0.109105371453
CC312D CG2DC3  1  0.354577689820  0.105847757841
CC312D CG2N1  1  0.347450500075  0.138767581228
CC312D CG2N2  1  0.347450500075  0.138767581228
CC312D CG2O1  1  0.347450500075  0.138767581228
CC312D CG2O2  1  0.320723538531  0.130979917850
CC312D CG2O3  1  0.347450500075  0.110698234855
CC312D CG2O4  1  0.329632525712  0.102486650838
CC312D CG2O5  1  0.347450500075  0.125520000000
CC312D CG2O6  1  0.347450500075  0.110698234855
CC312D CG2O7  1  0.308518226092  0.100764063435
CC312D CG2R51  1  0.356359487256  0.093557084179
CC312D CG2R52  1  0.365268474438  0.059170695450
CC312D CG2R53  1  0.365268474438  0.059170695450
CC312D CG2R57  1  0.356359487256  0.093557084179
CC312D CG25C1  1  0.355468588538  0.109105371453
CC312D CG25C2  1  0.355468588538  0.109105371453
CC312D CG251O  1  0.355468588538  0.109105371453
CC312D CG252O  1  0.355468588538  0.109105371453
CC312D CG2R61  1  0.346773417049  0.110698234855
CC312D CG2R62  1  0.338541512893  0.125520000000
CC312D CG2R63  1  0.338541512893  0.132309697301
CC312D CG2R64  1  0.356359487256  0.083680000000
CC312D CG2R66  1  0.338541512893  0.110698234855
CC312D CG2R67  1  0.346773417049  0.110698234855
CC312D CG2RC0  1  0.334977918021  0.131646486622
CC312D CG2R71  1  0.346987232741  0.108300154755
CC312D CG2RC7  1  0.334977918021  0.131646486622
CC312D CG301  1  0.338541512893  0.041840000000
CC312D CG302  1  0.374177461619  0.059170695450
CC312D CG311  1  0.338541512893  0.041840000000
CC312D CG312  1  0.351904993665  0.085746484010
CC312D CG314  1  0.338541512893  0.041840000000
CC312D CG321  1  0.338541512893  0.041840000000
CC312D CG322  1  0.338541512893  0.102486650838
CC312D CG323  1  0.365268474438  0.138767581228
CC312D CG324  1  0.338541512893  0.041840000000
CC312D CG331  1  0.338541512893  0.041840000000
CC312D CG334  1  0.338541512893  0.041840000000
CC312D CG3C50  1  0.338541512893  0.041840000000
CC312D CG3C51  1  0.338541512893  0.041840000000
CC312D CG3C52  1  0.338541512893  0.041840000000
CC312D CG3C53  1  0.338541512893  0.041840000000
CC312D CG3C54  1  0.338541512893  0.041840000000
CC312D CG3C31  1  0.338541512893  0.041840000000
CC312D CG3C41  1  0.338541512893  0.041840000000
CC312D CG3RC1  1  0.338541512893  0.041840000000
CC312D CG3AM0  1  0.344777803920  0.110698234855
CC312D CG3AM1  1  0.345668702638  0.116852760686
CC312D CG3AM2  1  0.346559601357  0.118341390899
CC312D NG1T1  1  0.328741626994  0.177512086349
CC312D NG2D1  1  0.334087019303  0.187114168357
CC312D NG2S0  1  0.334087019303  0.004184000000
CC312D NG2S1  1  0.307360057758  0.187114168357
CC312D NG2S2  1  0.334087019303  0.187114168357
CC312D NG2S3  1  0.334087019303  0.187114168357
CC312D NG2O1  1  0.334087019303  0.187114168357
CC312D NG2P1  1  0.334087019303  0.187114168357
CC312D NG2R43  1  0.334087019303  0.187114168357
CC312D NG2R50  1  0.334087019303  0.187114168357
CC312D NG2R51  1  0.334087019303  0.187114168357
CC312D NG2R52  1  0.334087019303  0.187114168357
CC312D NG2R53  1  0.334087019303  0.187114168357
CC312D NG2R57  1  0.334087019303  0.187114168357
CC312D NG2R60  1  0.337650614175  0.102486650838
CC312D NG2R61  1  0.334087019303  0.187114168357
CC312D NG2R62  1  0.352795892384  0.093557084179
CC312D NG2R67  1  0.334087019303  0.187114168357
CC312D NG2RC0  1  0.334087019303  0.187114168357
CC312D NG301  1  0.347450500075  0.078275472531
CC312D NG311  1  0.347450500075  0.088756043175
CC312D NG321  1  0.346559601357  0.102486650838
CC312D NG331  1  0.345668702638  0.110698234855
CC312D NG3C51  1  0.334087019303  0.187114168357
CC312D NG3N1  1  0.351904993665  0.102486650838
CC312D NG3P0  1  0.334087019303  0.187114168357
CC312D NG3P1  1  0.334087019303  0.187114168357
CC312D NG3P2  1  0.334087019303  0.187114168357
CC312D NG3P3  1  0.334087019303  0.187114168357
CC312D OG2D1  1  0.293996576986  0.144938011577
CC312D OG2D2  1  0.320723538531  0.144938011577
CC312D OG2D3  1  0.293996576986  0.144938011577
CC312D OG2D4  1  0.320723538531  0.144938011577
CC312D OG2D5  1  0.320010819556  0.169954883425
CC312D OG2N1  1  0.320723538531  0.144938011577
CC312D OG2P1  1  0.320723538531  0.144938011577
CC312D OG2R50  1  0.320723538531  0.144938011577
CC312D OG3R60  1  0.316269044940  0.132309697301
CC312D OG301  1  0.316269044940  0.132309697301
CC312D OG302  1  0.316269044940  0.132309697301
CC312D OG303  1  0.316269044940  0.132309697301
CC312D OG304  1  0.316269044940  0.132309697301
CC312D OG311  1  0.326514380198  0.183381431383
CC312D OG312  1  0.325178032121  0.144938011577
CC312D OG3C31  1  0.316269044940  0.132309697301
CC312D OG3C51  1  0.316269044940  0.132309697301
CC312D OG3C61  1  0.316269044940  0.132309697301
CC312D OGTIP3  1  0.326799467788  0.163176000000
CC312D SG2D1  1  0.351904993665  0.314496560236
CC312D SG2R50  1  0.347450500075  0.280671252536
CC312D SG311  1  0.347450500075  0.280671252536
CC312D SG301  1  0.345223253279  0.257919081884
CC312D SG302  1  0.365268474438  0.286840588481
CC312D SG3O1  1  0.356359487256  0.286840588481
CC312D SG3O2  1  0.347450500075  0.247528778125
CC312D SG3O3  1  0.347450500075  0.247528778125
CC312D  FGA1  1  0.314487247504  0.153729976257
CC312D  FGA2  1  0.314487247504  0.135577095411
CC312D  FGA3  1  0.311814551349  0.130309939452
CC312D  FGP1  1  0.311814551349  0.130309939452
CC312D  FGR1  1  0.320723538531  0.144938011577
CC312D CLGA1  1  0.339432411611  0.245040988571
CC312D CLGA3  1  0.339432411611  0.232955260941
CC312D BRGA1  1  0.344777803920  0.289876023155
CC312D BRGA2  1  0.351904993665  0.304599797767
CC312D BRGA3  1  0.347450500075  0.307459952514
CC312D   SOD  1  0.294954293108  0.090610410351
CC312D   CLA  1  0.371504765465  0.162045623205
CC312D   PG0  1  0.360813980847  0.320014464673
CC312D   PG1  1  0.360813980847  0.320014464673
CC312D   PG2  1  0.360813980847  0.320014464673
CC312D  ALG1  1  0.347450500075  0.337324864189
CC312D   LPH  1  0.169270756447  0.000000000000
CC312D CLGR1  1  0.334977918021  0.200657590935
CC312D BRGR1  1  0.345668702638  0.236682781799
CC312D  IGR1  1  0.368832069310  0.301712530731
CC312D SG2P1  1  0.355798221064  0.332305491450
CC312D OG2S1  1  0.318906105146  0.157831660601
CC312D SG2P2  1  0.352314807076  0.329421919951
CC312D SEGD1  1  0.363041227642  0.330244580395
CC312D BG201  1  0.396449929572  0.081561175077
CC312D CC301  1  0.338541512893  0.041840000000
CC312D CC3062  1  0.338541512893  0.041840000000
CC312D CC311  1  0.338541512893  0.041840000000
CC312D CC3161  1  0.338541512893  0.041840000000
CC312D CC3162  1  0.338541512893  0.041840000000
CC312D CC3163  1  0.338541512893  0.041840000000
CC312D CC321  1  0.338541512893  0.041840000000
CC312D CC3261  1  0.338541512893  0.041840000000
CC312D CC3263  1  0.338541512893  0.041840000000
CC312D CC331  1  0.338541512893  0.041840000000
CC312D CC2O1  1  0.347450500075  0.138767581228
CC312D CC2O2  1  0.347450500075  0.110698234855
CC312D CC2O3  1  0.347450500075  0.125520000000
CC312D CC2O4  1  0.329632525712  0.102486650838
CC312D CC2O5  1  0.320723538531  0.130979917850
CC312D OC2D1  1  0.293996576986  0.144938011577
CC312D OC2D2  1  0.320723538531  0.144938011577
CC312D OC2D3  1  0.293996576986  0.144938011577
CC312D OC2D4  1  0.293996576986  0.144938011577
CC312D OC3C61  1  0.316269044940  0.132309697301
CC312D OC311  1  0.326514380198  0.183381431383
CC312D NC2D1  1  0.307360057758  0.187114168357
CC312D  HCP1  1  0.189271432669  0.089736802707
CC312D  HCA1  1  0.288651184677  0.088756043175
CC312D  HCA2  1  0.288651184677  0.078275472531
CC312D  HCA3  1  0.288651184677  0.064818249282
CC312D CC312  1  0.338541512893  0.041840000000
CC312D CC322  1  0.338541512893  0.041840000000
CC312D  HCR1  1  0.240542653898  0.089736802707
CC312D HCA3M  1  0.288651184677  0.064818249282
CC312D CC321C  1  0.338541512893  0.041840000000
CC312D CC321D  1  0.338541512893  0.041840000000
CC312D CC311C  1  0.338541512893  0.041840000000
CC312D CC311D  1  0.338541512893  0.041840000000
CC312D OC301  1  0.316269044940  0.132309697301
CC312D OC302  1  0.316269044940  0.132309697301
CC312D HCP1M  1  0.189271432669  0.089736802707
CC312D OC311M  1  0.326514380198  0.183381431383
CC312D OC3C5M  1  0.316269044940  0.132309697301
CC312D CC322C  1  0.338541512893  0.041840000000
CC312D HCA2C2  1  0.285087589805  0.078275472531
CC312D CC312C  1  0.338541512893  0.041840000000
CC312D HCA1C2  1  0.288651184677  0.088756043175
CC312D OC3C51  1  0.316269044940  0.132309697301
CC312D CC3152  1  0.338541512893  0.041840000000
CC312D CC3051  1  0.338541512893  0.041840000000
CC312D CC3251  1  0.338541512893  0.041840000000
CC312D CC3151  1  0.338541512893  0.041840000000
CC312D CC3153  1  0.338541512893  0.041840000000
CC312D OC2DP  1  0.320723538531  0.144938011577
CC312D OC312  1  0.326959829558  0.163176000000
CC312D OC30P  1  0.326959829558  0.163176000000
CC312D    PC  1  0.360813980847  0.320014464673
CC312D    SC  1  0.356359487256  0.286840588481
CC312D CC312D  1  0.338541512893  0.041840000000
CC312D OC303  1  0.316269044940  0.132309697301
CC312D NC311  1  0.347450500075  0.088756043175
CC312D   HN1  1  0.189271432669  0.089736802707
CC312D   HN2  1  0.189271432669  0.089736802707
CC312D   HN3  1  0.267269615442  0.089736802707
CC312D   HN4  1  0.189271432669  0.089736802707
CC312D   HN5  1  0.189271432669  0.089736802707
CC312D   HN6  1  0.286869387241  0.062058748940
CC312D   HN7  1  0.286869387241  0.062058748940
CC312D   HN8  1  0.288651184677  0.070011711020
CC312D   HN9  1  0.288651184677  0.064818249282
CC312D   NN1  1  0.334087019303  0.187114168357
CC312D   NN2  1  0.334087019303  0.187114168357
CC312D  NN2B  1  0.334087019303  0.187114168357
CC312D  NN2G  1  0.334087019303  0.187114168357
CC312D  NN2U  1  0.334087019303  0.187114168357
CC312D   NN3  1  0.334087019303  0.187114168357
CC312D  NN3A  1  0.334087019303  0.187114168357
CC312D  NN3G  1  0.334087019303  0.187114168357
CC312D   NN4  1  0.334087019303  0.187114168357
CC312D   NN6  1  0.334087019303  0.187114168357
CC312D   ON1  1  0.320723538531  0.144938011577
CC312D  ON1C  1  0.320723538531  0.144938011577
CC312D   ON2  1  0.326959829558  0.163176000000
CC312D   ON3  1  0.320723538531  0.144938011577
CC312D   ON4  1  0.326959829558  0.163176000000
CC312D   ON5  1  0.326959829558  0.163176000000
CC312D   ON6  1  0.326959829558  0.163176000000
CC312D  ON6B  1  0.326959829558  0.163176000000
CC312D   CN1  1  0.338541512893  0.132309697301
CC312D  CN1T  1  0.338541512893  0.132309697301
CC312D   CN2  1  0.338541512893  0.132309697301
CC312D   CN3  1  0.338541512893  0.125520000000
CC312D  CN3T  1  0.338541512893  0.125520000000
CC312D   CN4  1  0.338541512893  0.114583559030
CC312D   CN5  1  0.338541512893  0.114583559030
CC312D  CN5G  1  0.338541512893  0.114583559030
CC312D   CN7  1  0.338541512893  0.041840000000
CC312D  CN7B  1  0.338541512893  0.041840000000
CC312D   CN8  1  0.338541512893  0.041840000000
CC312D  CN8B  1  0.338541512893  0.041840000000
CC312D   CN9  1  0.338541512893  0.041840000000
CC312D     P  1  0.360813980847  0.320014464673
CC312D    P2  1  0.360813980847  0.320014464673
CC312D    P3  1  0.360813980847  0.320014464673
CC312D    P4  1  0.360813980847  0.320014464673
CC312D   HOL  1  0.189271432669  0.089736802707
CC312D  HAL1  1  0.286869387241  0.062058748940
CC312D  HAL2  1  0.288651184677  0.070011711020
CC312D  HAL3  1  0.288651184677  0.064818249282
CC312D   HBL  1  0.286869387241  0.062058748940
CC312D   HCL  1  0.189271432669  0.089736802707
CC312D    HL  1  0.231633666716  0.089736802707
CC312D  HEL1  1  0.280633096214  0.073666921749
CC312D  HEL2  1  0.281523994932  0.067464972838
CC312D    CL  1  0.347450500075  0.110698234855
CC312D   CCL  1  0.347450500075  0.110698234855
CC312D  CTL1  1  0.338541512893  0.041840000000
CC312D  CTL2  1  0.338541512893  0.041840000000
CC312D  CTL3  1  0.338541512893  0.041840000000
CC312D  CTL5  1  0.338541512893  0.041840000000
CC312D  CEL1  1  0.355468588538  0.109105371453
CC312D  CEL2  1  0.354577689820  0.105847757841
CC312D  CRL1  1  0.338541512893  0.041840000000
CC312D  CRL2  1  0.338541512893  0.041840000000
CC312D   OBL  1  0.293996576986  0.144938011577
CC312D   OCL  1  0.320723538531  0.144938011577
CC312D   O2L  1  0.320723538531  0.144938011577
CC312D   OHL  1  0.326959829558  0.163176000000
CC312D   OSL  1  0.316269044940  0.132309697301
CC312D  OSLP  1  0.316269044940  0.132309697301
CC312D  NH3L  1  0.334087019303  0.187114168357
CC312D   NTL  1  0.334087019303  0.187114168357
CC312D    SL  1  0.356359487256  0.286840588481
CC312D    PL  1  0.360813980847  0.320014464673
CC312D HCA1A  1  0.288651184677  0.088756043175
CC312D HCA2A  1  0.288651184677  0.078275472531
CC312D HCA3A  1  0.288651184677  0.064818249282
CC312D CC30A  1  0.338541512893  0.041840000000
CC312D CC31A  1  0.338541512893  0.041840000000
CC312D CC32A  1  0.338541512893  0.041840000000
CC312D CC33A  1  0.338541512893  0.041840000000
CC312D CC326A  1  0.338541512893  0.041840000000
CC312D HCA25A  1  0.285087589805  0.078275472531
CC312D CC325A  1  0.338541512893  0.041840000000
CC312D CC325B  1  0.338541512893  0.041840000000
CC312D OC305A  1  0.316269044940  0.132309697301
CC312D OC30A  1  0.316269044940  0.132309697301
CC312D  HSIO  1  0.189271432669  0.089736802707
CC312D  HSIA  1  0.286869387241  0.062058748940
CC312D   HAL  1  0.286869387241  0.062058748940
CC312D    AL  1  0.365268474438  0.337324864189
CC312D    SI  1  0.365268474438  0.324091246411
CC312D  SIH3  1  0.365268474438  0.324091246411
CC312D  OSIH  1  0.326959829558  0.163176000000
CC312D  OSIE  1  0.326959829558  0.163176000000
CC312D  OSIA  1  0.326959829558  0.163176000000
CC312D   OAL  1  0.326959829558  0.163176000000
CC312D    HT  1  0.189271432669  0.089736802707
CC312D    OT  1  0.326799467788  0.163176000000
CC312D   DUM  1  0.169270756447  0.000000000000
CC312D    CM  1  0.356359487256  0.138767581228
CC312D   CPA  1  0.329632525712  0.125520000000
CC312D   CPB  1  0.329632525712  0.125520000000
CC312D   CPM  1  0.329632525712  0.125520000000
CC312D   CST  1  0.308518226092  0.100764063435
CC312D  CT1X  1  0.338541512893  0.041840000000
CC312D  CT2X  1  0.338541512893  0.041840000000
CC312D  CT3X  1  0.338541512893  0.041840000000
CC312D    HB  1  0.286869387241  0.062058748940
CC312D   NPH  1  0.334087019303  0.187114168357
CC312D    OM  1  0.320723538531  0.144938011577
CC312D   OST  1  0.320010819556  0.169954883425
CC312D   POT  1  0.326403017859  0.123410269913
CC312D   CAL  1  0.291056611216  0.144938011577
CC312D    MG  1  0.274842254546  0.051243325419
CC312D   CES  1  0.356359487256  0.182376331798
CC312D    ZN  1  0.266378716724  0.209200000000
CC312D    FE  1  0.227179173126  0.000000000000
CC312D    HE  1  0.301123766731  0.061020452073
CC312D    NE  1  0.305578260322  0.122698965603
CC312D  CLAL  1  0.339272049842  0.072469005789
CC312D    AG  1  0.300901042052  0.893457908130
CC312D    AU  1  0.300722862308  0.962320000000
CC312D    CU  1  0.285800308779  0.908997471504
CC312D    NI  1  0.282949432881  0.994525446633
CC312D    PB  1  0.328073452955  0.716185437439
CC312D    PD  1  0.294842930769  1.037598257516
CC312D    PT  1  0.296001099102  1.168527606863
CC312D   CAP  1  0.346773417049  0.110698234855
CC312D    FA  1  0.320723538531  0.144938011577
CC312D    CN  1  0.325178032121  0.187114168357
CC312D    NC  1  0.334087019303  0.324091246411
CC312D   OCA  1  0.293996576986  0.144938011577
CC312D   COA  1  0.347450500075  0.138767581228
CC312D   CF1  1  0.338541512893  0.102486650838
CC312D   CF2  1  0.351904993665  0.085746484010
CC312D   CF3  1  0.374177461619  0.059170695450
CC312D   HF1  1  0.286869387241  0.070011711020
CC312D   HF2  1  0.285087589805  0.072469005789
CC312D    F1  1  0.314487247504  0.153729976257
CC312D    F2  1  0.314487247504  0.135577095411
CC312D    F3  1  0.311814551349  0.130309939452
CC312D    OX  1  0.320723538531  0.144938011577
CC312D    HX  1  0.189271432669  0.089736802707
CC312D  HPER  1  0.189271432669  0.089736802707
CC312D  OPER  1  0.318427692534  0.188901923946
CC312D   LIT  1  0.284864865125  0.020196198771
CC312D   RUB  1  0.338541512893  0.162045623205
CC312D   BAR  1  0.337650614175  0.162045623205
CC312D   CAD  1  0.290165712498  0.144938011577
CC312D  ON2B  1  0.326959829558  0.163176000000
CC312D    SP  1  0.365268474438  0.280671252536
CC312D   HNP  1  0.290272620344  0.072469005789
CC312D  HNE1  1  0.280633096214  0.073666921749
CC312D  HNE2  1  0.281523994932  0.067464972838
CC312D  CN3D  1  0.338541512893  0.125520000000
CC312D  CNE1  1  0.355468588538  0.109105371453
CC312D  CNE2  1  0.354577689820  0.105847757841
CC312D   CNA  1  0.346773417049  0.110698234855
CC312D  CNA2  1  0.338541512893  0.110698234855
CC312D   CNG  1  0.347450500075  0.138767581228
CC312D  NN1C  1  0.334087019303  0.187114168357
CC312D  NN2C  1  0.334087019303  0.187114168357
CC312D  NN3I  1  0.334087019303  0.187114168357
CC312D   NNG  1  0.334087019303  0.187114168357
CC312D   FNA  1  0.320723538531  0.144938011577
CC312D  ON2M  1  0.316269044940  0.132309697301
CC312D   CN6  1  0.338541512893  0.041840000000
CC312D  CN7E  1  0.338541512893  0.041840000000
CC312D  CT2P  1  0.338541512893  0.041840000000
CC312D  CTD1  1  0.338541512893  0.041840000000
CC312D  CPD1  1  0.338541512893  0.041840000000
CC312D  CC1A  1  0.355468588538  0.109105371453
CC312D  CC1B  1  0.355468588538  0.109105371453
CC312D   CC2  1  0.354577689820  0.105847757841
CC312D   NS1  1  0.334087019303  0.187114168357
CC312D   NS2  1  0.334087019303  0.187114168357
CC312D   NHL  1  0.307360057758  0.187114168357
CC312D  CTO1  1  0.338541512893  0.041840000000
CC312D  CEL3  1  0.355468588538  0.109105371453
CC312D  CTO2  1  0.338541512893  0.041840000000
CC312D  HN3B  1  0.249451641079  0.089736802707
CC312D  CN1A  1  0.347450500075  0.110698234855
CC312D  CN3A  1  0.329632525712  0.177512086349
CC312D  CN3B  1  0.329632525712  0.177512086349
CC312D  CN3C  1  0.329632525712  0.177512086349
  CN7     C  1  0.347450500075  0.138767581228
  CN7    CA  1  0.346773417049  0.110698234855
  CN7    CC  1  0.347450500075  0.110698234855
  CN7    CD  1  0.347450500075  0.110698234855
  CN7   CE1  1  0.355468588538  0.109105371453
  CN7   CE2  1  0.354577689820  0.105847757841
  CN7   CP1  1  0.338541512893  0.041840000000
  CN7   CP2  1  0.338541512893  0.041840000000
  CN7   CP3  1  0.338541512893  0.041840000000
  CN7  CPH1  1  0.329632525712  0.093557084179
  CN7  CPH2  1  0.329632525712  0.093557084179
  CN7    CS  1  0.365268474438  0.138767581228
  CN7   CPT  1  0.334977918021  0.131646486622
  CN7    CY  1  0.346559601357  0.113045454929
  CN7   CAI  1  0.346559601357  0.113045454929
  CN7    CT  1  0.338541512893  0.041840000000
  CN7   CT1  1  0.338541512893  0.041840000000
  CN7   CT2  1  0.338541512893  0.041840000000
  CN7  CT2A  1  0.338541512893  0.041840000000
  CN7   CT3  1  0.338541512893  0.041840000000
  CN7    C3  1  0.371950214824  0.059170695450
  CN7     H  1  0.189271432669  0.089736802707
  CN7    HA  1  0.286869387241  0.062058748940
  CN7   HB1  1  0.286869387241  0.062058748940
  CN7   HB2  1  0.288651184677  0.070011711020
  CN7   HE1  1  0.280633096214  0.073666921749
  CN7   HE2  1  0.281523994932  0.067464972838
  CN7    HC  1  0.189271432669  0.089736802707
  CN7    HP  1  0.290272620344  0.072469005789
  CN7   HR1  1  0.249451641079  0.089736802707
  CN7   HR2  1  0.231633666716  0.089736802707
  CN7   HR3  1  0.300054688270  0.036952087465
  CN7    HS  1  0.209361198763  0.132309697301
  CN7   HA1  1  0.288651184677  0.088756043175
  CN7   HA2  1  0.288651184677  0.077149148019
  CN7   HA3  1  0.288651184677  0.064818249282
  CN7     N  1  0.334087019303  0.004184000000
  CN7   NC2  1  0.334087019303  0.187114168357
  CN7   NH1  1  0.307360057758  0.187114168357
  CN7   NH2  1  0.334087019303  0.187114168357
  CN7   NH3  1  0.334087019303  0.187114168357
  CN7    NP  1  0.334087019303  0.187114168357
  CN7   NR1  1  0.334087019303  0.187114168357
  CN7   NR2  1  0.334087019303  0.187114168357
  CN7   NR3  1  0.334087019303  0.187114168357
  CN7    NY  1  0.334087019303  0.187114168357
  CN7     O  1  0.293996576986  0.144938011577
  CN7    OB  1  0.293996576986  0.144938011577
  CN7    OC  1  0.320723538531  0.144938011577
  CN7   OH1  1  0.326959829558  0.163176000000
  CN7    OS  1  0.326959829558  0.163176000000
  CN7     S  1  0.347450500075  0.280671252536
  CN7    SM  1  0.345223253279  0.257919081884
  CN7    SS  1  0.365268474438  0.286840588481
  CN7  HGA1  1  0.288651184677  0.088756043175
  CN7  HGA2  1  0.288651184677  0.078275472531
  CN7  HGA3  1  0.288651184677  0.064818249282
  CN7  HGA4  1  0.280633096214  0.073666921749
  CN7  HGA5  1  0.281523994932  0.067464972838
  CN7  HGA6  1  0.286869387241  0.070011711020
  CN7  HGA7  1  0.285087589805  0.072469005789
  CN7 HGAAM0  1  0.283305792369  0.070011711020
  CN7 HGAAM1  1  0.283305792369  0.070011711020
  CN7 HGAAM2  1  0.281523994932  0.083680000000
  CN7  HGP1  1  0.189271432669  0.089736802707
  CN7  HGP2  1  0.189271432669  0.089736802707
  CN7  HGP3  1  0.209361198763  0.132309697301
  CN7  HGP4  1  0.189271432669  0.089736802707
  CN7  HGP5  1  0.231633666716  0.089736802707
  CN7 HGPAM1  1  0.247224394284  0.039692909190
  CN7 HGPAM2  1  0.247224394284  0.041840000000
  CN7 HGPAM3  1  0.246778944925  0.045833423612
  CN7 HGR51  1  0.290272620344  0.072469005789
  CN7 HGR52  1  0.249451641079  0.089736802707
  CN7 HGR53  1  0.231633666716  0.089736802707
  CN7 HGR61  1  0.290272620344  0.072469005789
  CN7 HGR62  1  0.267269615442  0.089736802707
  CN7 HGR63  1  0.249451641079  0.089736802707
  CN7 HGR71  1  0.290272620344  0.072469005789
  CN7 HGTIP3  1  0.189271432669  0.089736802707
  CN7 CG1T1  1  0.333196120584  0.170981810495
  CN7 CG1T2  1  0.346782326036  0.134409982486
  CN7 CG1N1  1  0.335868816739  0.177512086349
  CN7 CG2D1  1  0.355468588538  0.109105371453
  CN7 CG2D2  1  0.354577689820  0.105847757841
  CN7 CG2D1O  1  0.355468588538  0.109105371453
  CN7 CG2D2O  1  0.355468588538  0.109105371453
  CN7 CG2DC1  1  0.355468588538  0.109105371453
  CN7 CG2DC2  1  0.355468588538  0.109105371453
  CN7 CG2DC3  1  0.354577689820  0.105847757841
  CN7 CG2N1  1  0.347450500075  0.138767581228
  CN7 CG2N2  1  0.347450500075  0.138767581228
  CN7 CG2O1  1  0.347450500075  0.138767581228
  CN7 CG2O2  1  0.320723538531  0.130979917850
  CN7 CG2O3  1  0.347450500075  0.110698234855
  CN7 CG2O4  1  0.329632525712  0.102486650838
  CN7 CG2O5  1  0.347450500075  0.125520000000
  CN7 CG2O6  1  0.347450500075  0.110698234855
  CN7 CG2O7  1  0.308518226092  0.100764063435
  CN7 CG2R51  1  0.356359487256  0.093557084179
  CN7 CG2R52  1  0.365268474438  0.059170695450
  CN7 CG2R53  1  0.365268474438  0.059170695450
  CN7 CG2R57  1  0.356359487256  0.093557084179
  CN7 CG25C1  1  0.355468588538  0.109105371453
  CN7 CG25C2  1  0.355468588538  0.109105371453
  CN7 CG251O  1  0.355468588538  0.109105371453
  CN7 CG252O  1  0.355468588538  0.109105371453
  CN7 CG2R61  1  0.346773417049  0.110698234855
  CN7 CG2R62  1  0.338541512893  0.125520000000
  CN7 CG2R63  1  0.338541512893  0.132309697301
  CN7 CG2R64  1  0.356359487256  0.083680000000
  CN7 CG2R66  1  0.338541512893  0.110698234855
  CN7 CG2R67  1  0.346773417049  0.110698234855
  CN7 CG2RC0  1  0.334977918021  0.131646486622
  CN7 CG2R71  1  0.346987232741  0.108300154755
  CN7 CG2RC7  1  0.334977918021  0.131646486622
  CN7 CG301  1  0.338541512893  0.041840000000
  CN7 CG302  1  0.374177461619  0.059170695450
  CN7 CG311  1  0.338541512893  0.041840000000
  CN7 CG312  1  0.351904993665  0.085746484010
  CN7 CG314  1  0.338541512893  0.041840000000
  CN7 CG321  1  0.338541512893  0.041840000000
  CN7 CG322  1  0.338541512893  0.102486650838
  CN7 CG323  1  0.365268474438  0.138767581228
  CN7 CG324  1  0.338541512893  0.041840000000
  CN7 CG331  1  0.338541512893  0.041840000000
  CN7 CG334  1  0.338541512893  0.041840000000
  CN7 CG3C50  1  0.338541512893  0.041840000000
  CN7 CG3C51  1  0.338541512893  0.041840000000
  CN7 CG3C52  1  0.338541512893  0.041840000000
  CN7 CG3C53  1  0.338541512893  0.041840000000
  CN7 CG3C54  1  0.338541512893  0.041840000000
  CN7 CG3C31  1  0.338541512893  0.041840000000
  CN7 CG3C41  1  0.338541512893  0.041840000000
  CN7 CG3RC1  1  0.338541512893  0.041840000000
  CN7 CG3AM0  1  0.344777803920  0.110698234855
  CN7 CG3AM1  1  0.345668702638  0.116852760686
  CN7 CG3AM2  1  0.346559601357  0.118341390899
  CN7 NG1T1  1  0.328741626994  0.177512086349
  CN7 NG2D1  1  0.334087019303  0.187114168357
  CN7 NG2S0  1  0.334087019303  0.004184000000
  CN7 NG2S1  1  0.307360057758  0.187114168357
  CN7 NG2S2  1  0.334087019303  0.187114168357
  CN7 NG2S3  1  0.334087019303  0.187114168357
  CN7 NG2O1  1  0.334087019303  0.187114168357
  CN7 NG2P1  1  0.334087019303  0.187114168357
  CN7 NG2R43  1  0.334087019303  0.187114168357
  CN7 NG2R50  1  0.334087019303  0.187114168357
  CN7 NG2R51  1  0.334087019303  0.187114168357
  CN7 NG2R52  1  0.334087019303  0.187114168357
  CN7 NG2R53  1  0.334087019303  0.187114168357
  CN7 NG2R57  1  0.334087019303  0.187114168357
  CN7 NG2R60  1  0.337650614175  0.102486650838
  CN7 NG2R61  1  0.334087019303  0.187114168357
  CN7 NG2R62  1  0.352795892384  0.093557084179
  CN7 NG2R67  1  0.334087019303  0.187114168357
  CN7 NG2RC0  1  0.334087019303  0.187114168357
  CN7 NG301  1  0.347450500075  0.078275472531
  CN7 NG311  1  0.347450500075  0.088756043175
  CN7 NG321  1  0.346559601357  0.102486650838
  CN7 NG331  1  0.345668702638  0.110698234855
  CN7 NG3C51  1  0.334087019303  0.187114168357
  CN7 NG3N1  1  0.351904993665  0.102486650838
  CN7 NG3P0  1  0.334087019303  0.187114168357
  CN7 NG3P1  1  0.334087019303  0.187114168357
  CN7 NG3P2  1  0.334087019303  0.187114168357
  CN7 NG3P3  1  0.334087019303  0.187114168357
  CN7 OG2D1  1  0.293996576986  0.144938011577
  CN7 OG2D2  1  0.320723538531  0.144938011577
  CN7 OG2D3  1  0.293996576986  0.144938011577
  CN7 OG2D4  1  0.320723538531  0.144938011577
  CN7 OG2D5  1  0.320010819556  0.169954883425
  CN7 OG2N1  1  0.320723538531  0.144938011577
  CN7 OG2P1  1  0.320723538531  0.144938011577
  CN7 OG2R50  1  0.320723538531  0.144938011577
  CN7 OG3R60  1  0.316269044940  0.132309697301
  CN7 OG301  1  0.316269044940  0.132309697301
  CN7 OG302  1  0.316269044940  0.132309697301
  CN7 OG303  1  0.316269044940  0.132309697301
  CN7 OG304  1  0.316269044940  0.132309697301
  CN7 OG311  1  0.326514380198  0.183381431383
  CN7 OG312  1  0.325178032121  0.144938011577
  CN7 OG3C31  1  0.316269044940  0.132309697301
  CN7 OG3C51  1  0.316269044940  0.132309697301
  CN7 OG3C61  1  0.316269044940  0.132309697301
  CN7 OGTIP3  1  0.326799467788  0.163176000000
  CN7 SG2D1  1  0.351904993665  0.314496560236
  CN7 SG2R50  1  0.347450500075  0.280671252536
  CN7 SG311  1  0.347450500075  0.280671252536
  CN7 SG301  1  0.345223253279  0.257919081884
  CN7 SG302  1  0.365268474438  0.286840588481
  CN7 SG3O1  1  0.356359487256  0.286840588481
  CN7 SG3O2  1  0.347450500075  0.247528778125
  CN7 SG3O3  1  0.347450500075  0.247528778125
  CN7  FGA1  1  0.314487247504  0.153729976257
  CN7  FGA2  1  0.314487247504  0.135577095411
  CN7  FGA3  1  0.311814551349  0.130309939452
  CN7  FGP1  1  0.311814551349  0.130309939452
  CN7  FGR1  1  0.320723538531  0.144938011577
  CN7 CLGA1  1  0.339432411611  0.245040988571
  CN7 CLGA3  1  0.339432411611  0.232955260941
  CN7 BRGA1  1  0.344777803920  0.289876023155
  CN7 BRGA2  1  0.351904993665  0.304599797767
  CN7 BRGA3  1  0.347450500075  0.307459952514
  CN7   SOD  1  0.294954293108  0.090610410351
  CN7   CLA  1  0.371504765465  0.162045623205
  CN7   PG0  1  0.360813980847  0.320014464673
  CN7   PG1  1  0.360813980847  0.320014464673
  CN7   PG2  1  0.360813980847  0.320014464673
  CN7  ALG1  1  0.347450500075  0.337324864189
  CN7   LPH  1  0.169270756447  0.000000000000
  CN7 CLGR1  1  0.334977918021  0.200657590935
  CN7 BRGR1  1  0.345668702638  0.236682781799
  CN7  IGR1  1  0.368832069310  0.301712530731
  CN7 SG2P1  1  0.355798221064  0.332305491450
  CN7 OG2S1  1  0.318906105146  0.157831660601
  CN7 SG2P2  1  0.352314807076  0.329421919951
  CN7 SEGD1  1  0.363041227642  0.330244580395
  CN7 BG201  1  0.396449929572  0.081561175077
  CN7 CC301  1  0.338541512893  0.041840000000
  CN7 CC3062  1  0.338541512893  0.041840000000
  CN7 CC311  1  0.338541512893  0.041840000000
  CN7 CC3161  1  0.338541512893  0.041840000000
  CN7 CC3162  1  0.338541512893  0.041840000000
  CN7 CC3163  1  0.338541512893  0.041840000000
  CN7 CC321  1  0.338541512893  0.041840000000
  CN7 CC3261  1  0.338541512893  0.041840000000
  CN7 CC3263  1  0.338541512893  0.041840000000
  CN7 CC331  1  0.338541512893  0.041840000000
  CN7 CC2O1  1  0.347450500075  0.138767581228
  CN7 CC2O2  1  0.347450500075  0.110698234855
  CN7 CC2O3  1  0.347450500075  0.125520000000
  CN7 CC2O4  1  0.329632525712  0.102486650838
  CN7 CC2O5  1  0.320723538531  0.130979917850
  CN7 OC2D1  1  0.293996576986  0.144938011577
  CN7 OC2D2  1  0.320723538531  0.144938011577
  CN7 OC2D3  1  0.293996576986  0.144938011577
  CN7 OC2D4  1  0.293996576986  0.144938011577
  CN7 OC3C61  1  0.316269044940  0.132309697301
  CN7 OC311  1  0.326514380198  0.183381431383
  CN7 NC2D1  1  0.307360057758  0.187114168357
  CN7  HCP1  1  0.189271432669  0.089736802707
  CN7  HCA1  1  0.288651184677  0.088756043175
  CN7  HCA2  1  0.288651184677  0.078275472531
  CN7  HCA3  1  0.288651184677  0.064818249282
  CN7 CC312  1  0.338541512893  0.041840000000
  CN7 CC322  1  0.338541512893  0.041840000000
  CN7  HCR1  1  0.240542653898  0.089736802707
  CN7 HCA3M  1  0.288651184677  0.064818249282
  CN7 CC321C  1  0.338541512893  0.041840000000
  CN7 CC321D  1  0.338541512893  0.041840000000
  CN7 CC311C  1  0.338541512893  0.041840000000
  CN7 CC311D  1  0.338541512893  0.041840000000
  CN7 OC301  1  0.316269044940  0.132309697301
  CN7 OC302  1  0.316269044940  0.132309697301
  CN7 HCP1M  1  0.189271432669  0.089736802707
  CN7 OC311M  1  0.326514380198  0.183381431383
  CN7 OC3C5M  1  0.316269044940  0.132309697301
  CN7 CC322C  1  0.338541512893  0.041840000000
  CN7 HCA2C2  1  0.285087589805  0.078275472531
  CN7 CC312C  1  0.338541512893  0.041840000000
  CN7 HCA1C2  1  0.288651184677  0.088756043175
  CN7 OC3C51  1  0.316269044940  0.132309697301
  CN7 CC3152  1  0.338541512893  0.041840000000
  CN7 CC3051  1  0.338541512893  0.041840000000
  CN7 CC3251  1  0.338541512893  0.041840000000
  CN7 CC3151  1  0.338541512893  0.041840000000
  CN7 CC3153  1  0.338541512893  0.041840000000
  CN7 OC2DP  1  0.320723538531  0.144938011577
  CN7 OC312  1  0.326959829558  0.163176000000
  CN7 OC30P  1  0.326959829558  0.163176000000
  CN7    PC  1  0.360813980847  0.320014464673
  CN7    SC  1  0.356359487256  0.286840588481
  CN7 CC312D  1  0.338541512893  0.041840000000
  CN7 OC303  1  0.316269044940  0.132309697301
  CN7 NC311  1  0.347450500075  0.088756043175
  CN7   HN1  1  0.189271432669  0.089736802707
  CN7   HN2  1  0.189271432669  0.089736802707
  CN7   HN3  1  0.267269615442  0.089736802707
  CN7   HN4  1  0.189271432669  0.089736802707
  CN7   HN5  1  0.189271432669  0.089736802707
  CN7   HN6  1  0.286869387241  0.062058748940
  CN7   HN7  1  0.286869387241  0.062058748940
  CN7   HN8  1  0.288651184677  0.070011711020
  CN7   HN9  1  0.288651184677  0.064818249282
  CN7   NN1  1  0.334087019303  0.187114168357
  CN7   NN2  1  0.334087019303  0.187114168357
  CN7  NN2B  1  0.334087019303  0.187114168357
  CN7  NN2G  1  0.334087019303  0.187114168357
  CN7  NN2U  1  0.334087019303  0.187114168357
  CN7   NN3  1  0.334087019303  0.187114168357
  CN7  NN3A  1  0.334087019303  0.187114168357
  CN7  NN3G  1  0.334087019303  0.187114168357
  CN7   NN4  1  0.334087019303  0.187114168357
  CN7   NN6  1  0.334087019303  0.187114168357
  CN7   ON1  1  0.320723538531  0.144938011577
  CN7  ON1C  1  0.320723538531  0.144938011577
  CN7   ON2  1  0.326959829558  0.163176000000
  CN7   ON3  1  0.320723538531  0.144938011577
  CN7   ON4  1  0.326959829558  0.163176000000
  CN7   ON5  1  0.326959829558  0.163176000000
  CN7   ON6  1  0.326959829558  0.163176000000
  CN7  ON6B  1  0.326959829558  0.163176000000
  CN7   CN1  1  0.338541512893  0.132309697301
  CN7  CN1T  1  0.338541512893  0.132309697301
  CN7   CN2  1  0.338541512893  0.132309697301
  CN7   CN3  1  0.338541512893  0.125520000000
  CN7  CN3T  1  0.338541512893  0.125520000000
  CN7   CN4  1  0.338541512893  0.114583559030
  CN7   CN5  1  0.338541512893  0.114583559030
  CN7  CN5G  1  0.338541512893  0.114583559030
  CN7   CN7  1  0.338541512893  0.041840000000
  CN7  CN7B  1  0.338541512893  0.041840000000
  CN7   CN8  1  0.338541512893  0.041840000000
  CN7  CN8B  1  0.338541512893  0.041840000000
  CN7   CN9  1  0.338541512893  0.041840000000
  CN7     P  1  0.360813980847  0.320014464673
  CN7    P2  1  0.360813980847  0.320014464673
  CN7    P3  1  0.360813980847  0.320014464673
  CN7    P4  1  0.360813980847  0.320014464673
  CN7   HOL  1  0.189271432669  0.089736802707
  CN7  HAL1  1  0.286869387241  0.062058748940
  CN7  HAL2  1  0.288651184677  0.070011711020
  CN7  HAL3  1  0.288651184677  0.064818249282
  CN7   HBL  1  0.286869387241  0.062058748940
  CN7   HCL  1  0.189271432669  0.089736802707
  CN7    HL  1  0.231633666716  0.089736802707
  CN7  HEL1  1  0.280633096214  0.073666921749
  CN7  HEL2  1  0.281523994932  0.067464972838
  CN7    CL  1  0.347450500075  0.110698234855
  CN7   CCL  1  0.347450500075  0.110698234855
  CN7  CTL1  1  0.338541512893  0.041840000000
  CN7  CTL2  1  0.338541512893  0.041840000000
  CN7  CTL3  1  0.338541512893  0.041840000000
  CN7  CTL5  1  0.338541512893  0.041840000000
  CN7  CEL1  1  0.355468588538  0.109105371453
  CN7  CEL2  1  0.354577689820  0.105847757841
  CN7  CRL1  1  0.338541512893  0.041840000000
  CN7  CRL2  1  0.338541512893  0.041840000000
  CN7   OBL  1  0.293996576986  0.144938011577
  CN7   OCL  1  0.320723538531  0.144938011577
  CN7   O2L  1  0.320723538531  0.144938011577
  CN7   OHL  1  0.326959829558  0.163176000000
  CN7   OSL  1  0.316269044940  0.132309697301
  CN7  OSLP  1  0.316269044940  0.132309697301
  CN7  NH3L  1  0.334087019303  0.187114168357
  CN7   NTL  1  0.334087019303  0.187114168357
  CN7    SL  1  0.356359487256  0.286840588481
  CN7    PL  1  0.360813980847  0.320014464673
  CN7 HCA1A  1  0.288651184677  0.088756043175
  CN7 HCA2A  1  0.288651184677  0.078275472531
  CN7 HCA3A  1  0.288651184677  0.064818249282
  CN7 CC30A  1  0.338541512893  0.041840000000
  CN7 CC31A  1  0.338541512893  0.041840000000
  CN7 CC32A  1  0.338541512893  0.041840000000
  CN7 CC33A  1  0.338541512893  0.041840000000
  CN7 CC326A  1  0.338541512893  0.041840000000
  CN7 HCA25A  1  0.285087589805  0.078275472531
  CN7 CC325A  1  0.338541512893  0.041840000000
  CN7 CC325B  1  0.338541512893  0.041840000000
  CN7 OC305A  1  0.316269044940  0.132309697301
  CN7 OC30A  1  0.316269044940  0.132309697301
  CN7  HSIO  1  0.189271432669  0.089736802707
  CN7  HSIA  1  0.286869387241  0.062058748940
  CN7   HAL  1  0.286869387241  0.062058748940
  CN7    AL  1  0.365268474438  0.337324864189
  CN7    SI  1  0.365268474438  0.324091246411
  CN7  SIH3  1  0.365268474438  0.324091246411
  CN7  OSIH  1  0.326959829558  0.163176000000
  CN7  OSIE  1  0.326959829558  0.163176000000
  CN7  OSIA  1  0.326959829558  0.163176000000
  CN7   OAL  1  0.326959829558  0.163176000000
  CN7    HT  1  0.189271432669  0.089736802707
  CN7    OT  1  0.326799467788  0.163176000000
  CN7   DUM  1  0.169270756447  0.000000000000
  CN7    CM  1  0.356359487256  0.138767581228
  CN7   CPA  1  0.329632525712  0.125520000000
  CN7   CPB  1  0.329632525712  0.125520000000
  CN7   CPM  1  0.329632525712  0.125520000000
  CN7   CST  1  0.308518226092  0.100764063435
  CN7  CT1X  1  0.338541512893  0.041840000000
  CN7  CT2X  1  0.338541512893  0.041840000000
  CN7  CT3X  1  0.338541512893  0.041840000000
  CN7    HB  1  0.286869387241  0.062058748940
  CN7   NPH  1  0.334087019303  0.187114168357
  CN7    OM  1  0.320723538531  0.144938011577
  CN7   OST  1  0.320010819556  0.169954883425
  CN7   POT  1  0.326403017859  0.123410269913
  CN7   CAL  1  0.291056611216  0.144938011577
  CN7    MG  1  0.274842254546  0.051243325419
  CN7   CES  1  0.356359487256  0.182376331798
  CN7    ZN  1  0.266378716724  0.209200000000
  CN7    FE  1  0.227179173126  0.000000000000
  CN7    HE  1  0.301123766731  0.061020452073
  CN7    NE  1  0.305578260322  0.122698965603
  CN7  CLAL  1  0.339272049842  0.072469005789
  CN7    AG  1  0.300901042052  0.893457908130
  CN7    AU  1  0.300722862308  0.962320000000
  CN7    CU  1  0.285800308779  0.908997471504
  CN7    NI  1  0.282949432881  0.994525446633
  CN7    PB  1  0.328073452955  0.716185437439
  CN7    PD  1  0.294842930769  1.037598257516
  CN7    PT  1  0.296001099102  1.168527606863
  CN7   CAP  1  0.346773417049  0.110698234855
  CN7    FA  1  0.320723538531  0.144938011577
  CN7    CN  1  0.325178032121  0.187114168357
  CN7    NC  1  0.334087019303  0.324091246411
  CN7   OCA  1  0.293996576986  0.144938011577
  CN7   COA  1  0.347450500075  0.138767581228
  CN7   CF1  1  0.338541512893  0.102486650838
  CN7   CF2  1  0.351904993665  0.085746484010
  CN7   CF3  1  0.374177461619  0.059170695450
  CN7   HF1  1  0.286869387241  0.070011711020
  CN7   HF2  1  0.285087589805  0.072469005789
  CN7    F1  1  0.314487247504  0.153729976257
  CN7    F2  1  0.314487247504  0.135577095411
  CN7    F3  1  0.311814551349  0.130309939452
  CN7    OX  1  0.320723538531  0.144938011577
  CN7    HX  1  0.189271432669  0.089736802707
  CN7  HPER  1  0.189271432669  0.089736802707
  CN7  OPER  1  0.318427692534  0.188901923946
  CN7   LIT  1  0.284864865125  0.020196198771
  CN7   RUB  1  0.338541512893  0.162045623205
  CN7   BAR  1  0.337650614175  0.162045623205
  CN7   CAD  1  0.290165712498  0.144938011577
  CN7  ON2B  1  0.326959829558  0.163176000000
  CN7    SP  1  0.365268474438  0.280671252536
  CN7   HNP  1  0.290272620344  0.072469005789
  CN7  HNE1  1  0.280633096214  0.073666921749
  CN7  HNE2  1  0.281523994932  0.067464972838
  CN7  CN3D  1  0.338541512893  0.125520000000
  CN7  CNE1  1  0.355468588538  0.109105371453
  CN7  CNE2  1  0.354577689820  0.105847757841
  CN7   CNA  1  0.346773417049  0.110698234855
  CN7  CNA2  1  0.338541512893  0.110698234855
  CN7   CNG  1  0.347450500075  0.138767581228
  CN7  NN1C  1  0.334087019303  0.187114168357
  CN7  NN2C  1  0.334087019303  0.187114168357
  CN7  NN3I  1  0.334087019303  0.187114168357
  CN7   NNG  1  0.334087019303  0.187114168357
  CN7   FNA  1  0.320723538531  0.144938011577
  CN7  ON2M  1  0.316269044940  0.132309697301
  CN7   CN6  1  0.338541512893  0.041840000000
  CN7  CN7E  1  0.338541512893  0.041840000000
  CN7  CT2P  1  0.338541512893  0.041840000000
  CN7  CTD1  1  0.338541512893  0.041840000000
  CN7  CPD1  1  0.338541512893  0.041840000000
  CN7  CC1A  1  0.355468588538  0.109105371453
  CN7  CC1B  1  0.355468588538  0.109105371453
  CN7   CC2  1  0.354577689820  0.105847757841
  CN7   NS1  1  0.334087019303  0.187114168357
  CN7   NS2  1  0.334087019303  0.187114168357
  CN7   NHL  1  0.307360057758  0.187114168357
  CN7  CTO1  1  0.338541512893  0.041840000000
  CN7  CEL3  1  0.355468588538  0.109105371453
  CN7  CTO2  1  0.338541512893  0.041840000000
  CN7  HN3B  1  0.249451641079  0.089736802707
  CN7  CN1A  1  0.347450500075  0.110698234855
  CN7  CN3A  1  0.329632525712  0.177512086349
  CN7  CN3B  1  0.329632525712  0.177512086349
  CN7  CN3C  1  0.329632525712  0.177512086349
 CN7B     C  1  0.347450500075  0.138767581228
 CN7B    CA  1  0.346773417049  0.110698234855
 CN7B    CC  1  0.347450500075  0.110698234855
 CN7B    CD  1  0.347450500075  0.110698234855
 CN7B   CE1  1  0.355468588538  0.109105371453
 CN7B   CE2  1  0.354577689820  0.105847757841
 CN7B   CP1  1  0.338541512893  0.041840000000
 CN7B   CP2  1  0.338541512893  0.041840000000
 CN7B   CP3  1  0.338541512893  0.041840000000
 CN7B  CPH1  1  0.329632525712  0.093557084179
 CN7B  CPH2  1  0.329632525712  0.093557084179
 CN7B    CS  1  0.365268474438  0.138767581228
 CN7B   CPT  1  0.334977918021  0.131646486622
 CN7B    CY  1  0.346559601357  0.113045454929
 CN7B   CAI  1  0.346559601357  0.113045454929
 CN7B    CT  1  0.338541512893  0.041840000000
 CN7B   CT1  1  0.338541512893  0.041840000000
 CN7B   CT2  1  0.338541512893  0.041840000000
 CN7B  CT2A  1  0.338541512893  0.041840000000
 CN7B   CT3  1  0.338541512893  0.041840000000
 CN7B    C3  1  0.371950214824  0.059170695450
 CN7B     H  1  0.189271432669  0.089736802707
 CN7B    HA  1  0.286869387241  0.062058748940
 CN7B   HB1  1  0.286869387241  0.062058748940
 CN7B   HB2  1  0.288651184677  0.070011711020
 CN7B   HE1  1  0.280633096214  0.073666921749
 CN7B   HE2  1  0.281523994932  0.067464972838
 CN7B    HC  1  0.189271432669  0.089736802707
 CN7B    HP  1  0.290272620344  0.072469005789
 CN7B   HR1  1  0.249451641079  0.089736802707
 CN7B   HR2  1  0.231633666716  0.089736802707
 CN7B   HR3  1  0.300054688270  0.036952087465
 CN7B    HS  1  0.209361198763  0.132309697301
 CN7B   HA1  1  0.288651184677  0.088756043175
 CN7B   HA2  1  0.288651184677  0.077149148019
 CN7B   HA3  1  0.288651184677  0.064818249282
 CN7B     N  1  0.334087019303  0.004184000000
 CN7B   NC2  1  0.334087019303  0.187114168357
 CN7B   NH1  1  0.307360057758  0.187114168357
 CN7B   NH2  1  0.334087019303  0.187114168357
 CN7B   NH3  1  0.334087019303  0.187114168357
 CN7B    NP  1  0.334087019303  0.187114168357
 CN7B   NR1  1  0.334087019303  0.187114168357
 CN7B   NR2  1  0.334087019303  0.187114168357
 CN7B   NR3  1  0.334087019303  0.187114168357
 CN7B    NY  1  0.334087019303  0.187114168357
 CN7B     O  1  0.293996576986  0.144938011577
 CN7B    OB  1  0.293996576986  0.144938011577
 CN7B    OC  1  0.320723538531  0.144938011577
 CN7B   OH1  1  0.326959829558  0.163176000000
 CN7B    OS  1  0.326959829558  0.163176000000
 CN7B     S  1  0.347450500075  0.280671252536
 CN7B    SM  1  0.345223253279  0.257919081884
 CN7B    SS  1  0.365268474438  0.286840588481
 CN7B  HGA1  1  0.288651184677  0.088756043175
 CN7B  HGA2  1  0.288651184677  0.078275472531
 CN7B  HGA3  1  0.288651184677  0.064818249282
 CN7B  HGA4  1  0.280633096214  0.073666921749
 CN7B  HGA5  1  0.281523994932  0.067464972838
 CN7B  HGA6  1  0.286869387241  0.070011711020
 CN7B  HGA7  1  0.285087589805  0.072469005789
 CN7B HGAAM0  1  0.283305792369  0.070011711020
 CN7B HGAAM1  1  0.283305792369  0.070011711020
 CN7B HGAAM2  1  0.281523994932  0.083680000000
 CN7B  HGP1  1  0.189271432669  0.089736802707
 CN7B  HGP2  1  0.189271432669  0.089736802707
 CN7B  HGP3  1  0.209361198763  0.132309697301
 CN7B  HGP4  1  0.189271432669  0.089736802707
 CN7B  HGP5  1  0.231633666716  0.089736802707
 CN7B HGPAM1  1  0.247224394284  0.039692909190
 CN7B HGPAM2  1  0.247224394284  0.041840000000
 CN7B HGPAM3  1  0.246778944925  0.045833423612
 CN7B HGR51  1  0.290272620344  0.072469005789
 CN7B HGR52  1  0.249451641079  0.089736802707
 CN7B HGR53  1  0.231633666716  0.089736802707
 CN7B HGR61  1  0.290272620344  0.072469005789
 CN7B HGR62  1  0.267269615442  0.089736802707
 CN7B HGR63  1  0.249451641079  0.089736802707
 CN7B HGR71  1  0.290272620344  0.072469005789
 CN7B HGTIP3  1  0.189271432669  0.089736802707
 CN7B CG1T1  1  0.333196120584  0.170981810495
 CN7B CG1T2  1  0.346782326036  0.134409982486
 CN7B CG1N1  1  0.335868816739  0.177512086349
 CN7B CG2D1  1  0.355468588538  0.109105371453
 CN7B CG2D2  1  0.354577689820  0.105847757841
 CN7B CG2D1O  1  0.355468588538  0.109105371453
 CN7B CG2D2O  1  0.355468588538  0.109105371453
 CN7B CG2DC1  1  0.355468588538  0.109105371453
 CN7B CG2DC2  1  0.355468588538  0.109105371453
 CN7B CG2DC3  1  0.354577689820  0.105847757841
 CN7B CG2N1  1  0.347450500075  0.138767581228
 CN7B CG2N2  1  0.347450500075  0.138767581228
 CN7B CG2O1  1  0.347450500075  0.138767581228
 CN7B CG2O2  1  0.320723538531  0.130979917850
 CN7B CG2O3  1  0.347450500075  0.110698234855
 CN7B CG2O4  1  0.329632525712  0.102486650838
 CN7B CG2O5  1  0.347450500075  0.125520000000
 CN7B CG2O6  1  0.347450500075  0.110698234855
 CN7B CG2O7  1  0.308518226092  0.100764063435
 CN7B CG2R51  1  0.356359487256  0.093557084179
 CN7B CG2R52  1  0.365268474438  0.059170695450
 CN7B CG2R53  1  0.365268474438  0.059170695450
 CN7B CG2R57  1  0.356359487256  0.093557084179
 CN7B CG25C1  1  0.355468588538  0.109105371453
 CN7B CG25C2  1  0.355468588538  0.109105371453
 CN7B CG251O  1  0.355468588538  0.109105371453
 CN7B CG252O  1  0.355468588538  0.109105371453
 CN7B CG2R61  1  0.346773417049  0.110698234855
 CN7B CG2R62  1  0.338541512893  0.125520000000
 CN7B CG2R63  1  0.338541512893  0.132309697301
 CN7B CG2R64  1  0.356359487256  0.083680000000
 CN7B CG2R66  1  0.338541512893  0.110698234855
 CN7B CG2R67  1  0.346773417049  0.110698234855
 CN7B CG2RC0  1  0.334977918021  0.131646486622
 CN7B CG2R71  1  0.346987232741  0.108300154755
 CN7B CG2RC7  1  0.334977918021  0.131646486622
 CN7B CG301  1  0.338541512893  0.041840000000
 CN7B CG302  1  0.374177461619  0.059170695450
 CN7B CG311  1  0.338541512893  0.041840000000
 CN7B CG312  1  0.351904993665  0.085746484010
 CN7B CG314  1  0.338541512893  0.041840000000
 CN7B CG321  1  0.338541512893  0.041840000000
 CN7B CG322  1  0.338541512893  0.102486650838
 CN7B CG323  1  0.365268474438  0.138767581228
 CN7B CG324  1  0.338541512893  0.041840000000
 CN7B CG331  1  0.338541512893  0.041840000000
 CN7B CG334  1  0.338541512893  0.041840000000
 CN7B CG3C50  1  0.338541512893  0.041840000000
 CN7B CG3C51  1  0.338541512893  0.041840000000
 CN7B CG3C52  1  0.338541512893  0.041840000000
 CN7B CG3C53  1  0.338541512893  0.041840000000
 CN7B CG3C54  1  0.338541512893  0.041840000000
 CN7B CG3C31  1  0.338541512893  0.041840000000
 CN7B CG3C41  1  0.338541512893  0.041840000000
 CN7B CG3RC1  1  0.338541512893  0.041840000000
 CN7B CG3AM0  1  0.344777803920  0.110698234855
 CN7B CG3AM1  1  0.345668702638  0.116852760686
 CN7B CG3AM2  1  0.346559601357  0.118341390899
 CN7B NG1T1  1  0.328741626994  0.177512086349
 CN7B NG2D1  1  0.334087019303  0.187114168357
 CN7B NG2S0  1  0.334087019303  0.004184000000
 CN7B NG2S1  1  0.307360057758  0.187114168357
 CN7B NG2S2  1  0.334087019303  0.187114168357
 CN7B NG2S3  1  0.334087019303  0.187114168357
 CN7B NG2O1  1  0.334087019303  0.187114168357
 CN7B NG2P1  1  0.334087019303  0.187114168357
 CN7B NG2R43  1  0.334087019303  0.187114168357
 CN7B NG2R50  1  0.334087019303  0.187114168357
 CN7B NG2R51  1  0.334087019303  0.187114168357
 CN7B NG2R52  1  0.334087019303  0.187114168357
 CN7B NG2R53  1  0.334087019303  0.187114168357
 CN7B NG2R57  1  0.334087019303  0.187114168357
 CN7B NG2R60  1  0.337650614175  0.102486650838
 CN7B NG2R61  1  0.334087019303  0.187114168357
 CN7B NG2R62  1  0.352795892384  0.093557084179
 CN7B NG2R67  1  0.334087019303  0.187114168357
 CN7B NG2RC0  1  0.334087019303  0.187114168357
 CN7B NG301  1  0.347450500075  0.078275472531
 CN7B NG311  1  0.347450500075  0.088756043175
 CN7B NG321  1  0.346559601357  0.102486650838
 CN7B NG331  1  0.345668702638  0.110698234855
 CN7B NG3C51  1  0.334087019303  0.187114168357
 CN7B NG3N1  1  0.351904993665  0.102486650838
 CN7B NG3P0  1  0.334087019303  0.187114168357
 CN7B NG3P1  1  0.334087019303  0.187114168357
 CN7B NG3P2  1  0.334087019303  0.187114168357
 CN7B NG3P3  1  0.334087019303  0.187114168357
 CN7B OG2D1  1  0.293996576986  0.144938011577
 CN7B OG2D2  1  0.320723538531  0.144938011577
 CN7B OG2D3  1  0.293996576986  0.144938011577
 CN7B OG2D4  1  0.320723538531  0.144938011577
 CN7B OG2D5  1  0.320010819556  0.169954883425
 CN7B OG2N1  1  0.320723538531  0.144938011577
 CN7B OG2P1  1  0.320723538531  0.144938011577
 CN7B OG2R50  1  0.320723538531  0.144938011577
 CN7B OG3R60  1  0.316269044940  0.132309697301
 CN7B OG301  1  0.316269044940  0.132309697301
 CN7B OG302  1  0.316269044940  0.132309697301
 CN7B OG303  1  0.316269044940  0.132309697301
 CN7B OG304  1  0.316269044940  0.132309697301
 CN7B OG311  1  0.326514380198  0.183381431383
 CN7B OG312  1  0.325178032121  0.144938011577
 CN7B OG3C31  1  0.316269044940  0.132309697301
 CN7B OG3C51  1  0.316269044940  0.132309697301
 CN7B OG3C61  1  0.316269044940  0.132309697301
 CN7B OGTIP3  1  0.326799467788  0.163176000000
 CN7B SG2D1  1  0.351904993665  0.314496560236
 CN7B SG2R50  1  0.347450500075  0.280671252536
 CN7B SG311  1  0.347450500075  0.280671252536
 CN7B SG301  1  0.345223253279  0.257919081884
 CN7B SG302  1  0.365268474438  0.286840588481
 CN7B SG3O1  1  0.356359487256  0.286840588481
 CN7B SG3O2  1  0.347450500075  0.247528778125
 CN7B SG3O3  1  0.347450500075  0.247528778125
 CN7B  FGA1  1  0.314487247504  0.153729976257
 CN7B  FGA2  1  0.314487247504  0.135577095411
 CN7B  FGA3  1  0.311814551349  0.130309939452
 CN7B  FGP1  1  0.311814551349  0.130309939452
 CN7B  FGR1  1  0.320723538531  0.144938011577
 CN7B CLGA1  1  0.339432411611  0.245040988571
 CN7B CLGA3  1  0.339432411611  0.232955260941
 CN7B BRGA1  1  0.344777803920  0.289876023155
 CN7B BRGA2  1  0.351904993665  0.304599797767
 CN7B BRGA3  1  0.347450500075  0.307459952514
 CN7B   SOD  1  0.294954293108  0.090610410351
 CN7B   CLA  1  0.371504765465  0.162045623205
 CN7B   PG0  1  0.360813980847  0.320014464673
 CN7B   PG1  1  0.360813980847  0.320014464673
 CN7B   PG2  1  0.360813980847  0.320014464673
 CN7B  ALG1  1  0.347450500075  0.337324864189
 CN7B   LPH  1  0.169270756447  0.000000000000
 CN7B CLGR1  1  0.334977918021  0.200657590935
 CN7B BRGR1  1  0.345668702638  0.236682781799
 CN7B  IGR1  1  0.368832069310  0.301712530731
 CN7B SG2P1  1  0.355798221064  0.332305491450
 CN7B OG2S1  1  0.318906105146  0.157831660601
 CN7B SG2P2  1  0.352314807076  0.329421919951
 CN7B SEGD1  1  0.363041227642  0.330244580395
 CN7B BG201  1  0.396449929572  0.081561175077
 CN7B CC301  1  0.338541512893  0.041840000000
 CN7B CC3062  1  0.338541512893  0.041840000000
 CN7B CC311  1  0.338541512893  0.041840000000
 CN7B CC3161  1  0.338541512893  0.041840000000
 CN7B CC3162  1  0.338541512893  0.041840000000
 CN7B CC3163  1  0.338541512893  0.041840000000
 CN7B CC321  1  0.338541512893  0.041840000000
 CN7B CC3261  1  0.338541512893  0.041840000000
 CN7B CC3263  1  0.338541512893  0.041840000000
 CN7B CC331  1  0.338541512893  0.041840000000
 CN7B CC2O1  1  0.347450500075  0.138767581228
 CN7B CC2O2  1  0.347450500075  0.110698234855
 CN7B CC2O3  1  0.347450500075  0.125520000000
 CN7B CC2O4  1  0.329632525712  0.102486650838
 CN7B CC2O5  1  0.320723538531  0.130979917850
 CN7B OC2D1  1  0.293996576986  0.144938011577
 CN7B OC2D2  1  0.320723538531  0.144938011577
 CN7B OC2D3  1  0.293996576986  0.144938011577
 CN7B OC2D4  1  0.293996576986  0.144938011577
 CN7B OC3C61  1  0.316269044940  0.132309697301
 CN7B OC311  1  0.326514380198  0.183381431383
 CN7B NC2D1  1  0.307360057758  0.187114168357
 CN7B  HCP1  1  0.189271432669  0.089736802707
 CN7B  HCA1  1  0.288651184677  0.088756043175
 CN7B  HCA2  1  0.288651184677  0.078275472531
 CN7B  HCA3  1  0.288651184677  0.064818249282
 CN7B CC312  1  0.338541512893  0.041840000000
 CN7B CC322  1  0.338541512893  0.041840000000
 CN7B  HCR1  1  0.240542653898  0.089736802707
 CN7B HCA3M  1  0.288651184677  0.064818249282
 CN7B CC321C  1  0.338541512893  0.041840000000
 CN7B CC321D  1  0.338541512893  0.041840000000
 CN7B CC311C  1  0.338541512893  0.041840000000
 CN7B CC311D  1  0.338541512893  0.041840000000
 CN7B OC301  1  0.316269044940  0.132309697301
 CN7B OC302  1  0.316269044940  0.132309697301
 CN7B HCP1M  1  0.189271432669  0.089736802707
 CN7B OC311M  1  0.326514380198  0.183381431383
 CN7B OC3C5M  1  0.316269044940  0.132309697301
 CN7B CC322C  1  0.338541512893  0.041840000000
 CN7B HCA2C2  1  0.285087589805  0.078275472531
 CN7B CC312C  1  0.338541512893  0.041840000000
 CN7B HCA1C2  1  0.288651184677  0.088756043175
 CN7B OC3C51  1  0.316269044940  0.132309697301
 CN7B CC3152  1  0.338541512893  0.041840000000
 CN7B CC3051  1  0.338541512893  0.041840000000
 CN7B CC3251  1  0.338541512893  0.041840000000
 CN7B CC3151  1  0.338541512893  0.041840000000
 CN7B CC3153  1  0.338541512893  0.041840000000
 CN7B OC2DP  1  0.320723538531  0.144938011577
 CN7B OC312  1  0.326959829558  0.163176000000
 CN7B OC30P  1  0.326959829558  0.163176000000
 CN7B    PC  1  0.360813980847  0.320014464673
 CN7B    SC  1  0.356359487256  0.286840588481
 CN7B CC312D  1  0.338541512893  0.041840000000
 CN7B OC303  1  0.316269044940  0.132309697301
 CN7B NC311  1  0.347450500075  0.088756043175
 CN7B   HN1  1  0.189271432669  0.089736802707
 CN7B   HN2  1  0.189271432669  0.089736802707
 CN7B   HN3  1  0.267269615442  0.089736802707
 CN7B   HN4  1  0.189271432669  0.089736802707
 CN7B   HN5  1  0.189271432669  0.089736802707
 CN7B   HN6  1  0.286869387241  0.062058748940
 CN7B   HN7  1  0.286869387241  0.062058748940
 CN7B   HN8  1  0.288651184677  0.070011711020
 CN7B   HN9  1  0.288651184677  0.064818249282
 CN7B   NN1  1  0.334087019303  0.187114168357
 CN7B   NN2  1  0.334087019303  0.187114168357
 CN7B  NN2B  1  0.334087019303  0.187114168357
 CN7B  NN2G  1  0.334087019303  0.187114168357
 CN7B  NN2U  1  0.334087019303  0.187114168357
 CN7B   NN3  1  0.334087019303  0.187114168357
 CN7B  NN3A  1  0.334087019303  0.187114168357
 CN7B  NN3G  1  0.334087019303  0.187114168357
 CN7B   NN4  1  0.334087019303  0.187114168357
 CN7B   NN6  1  0.334087019303  0.187114168357
 CN7B   ON1  1  0.320723538531  0.144938011577
 CN7B  ON1C  1  0.320723538531  0.144938011577
 CN7B   ON2  1  0.326959829558  0.163176000000
 CN7B   ON3  1  0.320723538531  0.144938011577
 CN7B   ON4  1  0.326959829558  0.163176000000
 CN7B   ON5  1  0.326959829558  0.163176000000
 CN7B   ON6  1  0.326959829558  0.163176000000
 CN7B  ON6B  1  0.326959829558  0.163176000000
 CN7B   CN1  1  0.338541512893  0.132309697301
 CN7B  CN1T  1  0.338541512893  0.132309697301
 CN7B   CN2  1  0.338541512893  0.132309697301
 CN7B   CN3  1  0.338541512893  0.125520000000
 CN7B  CN3T  1  0.338541512893  0.125520000000
 CN7B   CN4  1  0.338541512893  0.114583559030
 CN7B   CN5  1  0.338541512893  0.114583559030
 CN7B  CN5G  1  0.338541512893  0.114583559030
 CN7B   CN7  1  0.338541512893  0.041840000000
 CN7B  CN7B  1  0.338541512893  0.041840000000
 CN7B   CN8  1  0.338541512893  0.041840000000
 CN7B  CN8B  1  0.338541512893  0.041840000000
 CN7B   CN9  1  0.338541512893  0.041840000000
 CN7B     P  1  0.360813980847  0.320014464673
 CN7B    P2  1  0.360813980847  0.320014464673
 CN7B    P3  1  0.360813980847  0.320014464673
 CN7B    P4  1  0.360813980847  0.320014464673
 CN7B   HOL  1  0.189271432669  0.089736802707
 CN7B  HAL1  1  0.286869387241  0.062058748940
 CN7B  HAL2  1  0.288651184677  0.070011711020
 CN7B  HAL3  1  0.288651184677  0.064818249282
 CN7B   HBL  1  0.286869387241  0.062058748940
 CN7B   HCL  1  0.189271432669  0.089736802707
 CN7B    HL  1  0.231633666716  0.089736802707
 CN7B  HEL1  1  0.280633096214  0.073666921749
 CN7B  HEL2  1  0.281523994932  0.067464972838
 CN7B    CL  1  0.347450500075  0.110698234855
 CN7B   CCL  1  0.347450500075  0.110698234855
 CN7B  CTL1  1  0.338541512893  0.041840000000
 CN7B  CTL2  1  0.338541512893  0.041840000000
 CN7B  CTL3  1  0.338541512893  0.041840000000
 CN7B  CTL5  1  0.338541512893  0.041840000000
 CN7B  CEL1  1  0.355468588538  0.109105371453
 CN7B  CEL2  1  0.354577689820  0.105847757841
 CN7B  CRL1  1  0.338541512893  0.041840000000
 CN7B  CRL2  1  0.338541512893  0.041840000000
 CN7B   OBL  1  0.293996576986  0.144938011577
 CN7B   OCL  1  0.320723538531  0.144938011577
 CN7B   O2L  1  0.320723538531  0.144938011577
 CN7B   OHL  1  0.326959829558  0.163176000000
 CN7B   OSL  1  0.316269044940  0.132309697301
 CN7B  OSLP  1  0.316269044940  0.132309697301
 CN7B  NH3L  1  0.334087019303  0.187114168357
 CN7B   NTL  1  0.334087019303  0.187114168357
 CN7B    SL  1  0.356359487256  0.286840588481
 CN7B    PL  1  0.360813980847  0.320014464673
 CN7B HCA1A  1  0.288651184677  0.088756043175
 CN7B HCA2A  1  0.288651184677  0.078275472531
 CN7B HCA3A  1  0.288651184677  0.064818249282
 CN7B CC30A  1  0.338541512893  0.041840000000
 CN7B CC31A  1  0.338541512893  0.041840000000
 CN7B CC32A  1  0.338541512893  0.041840000000
 CN7B CC33A  1  0.338541512893  0.041840000000
 CN7B CC326A  1  0.338541512893  0.041840000000
 CN7B HCA25A  1  0.285087589805  0.078275472531
 CN7B CC325A  1  0.338541512893  0.041840000000
 CN7B CC325B  1  0.338541512893  0.041840000000
 CN7B OC305A  1  0.316269044940  0.132309697301
 CN7B OC30A  1  0.316269044940  0.132309697301
 CN7B  HSIO  1  0.189271432669  0.089736802707
 CN7B  HSIA  1  0.286869387241  0.062058748940
 CN7B   HAL  1  0.286869387241  0.062058748940
 CN7B    AL  1  0.365268474438  0.337324864189
 CN7B    SI  1  0.365268474438  0.324091246411
 CN7B  SIH3  1  0.365268474438  0.324091246411
 CN7B  OSIH  1  0.326959829558  0.163176000000
 CN7B  OSIE  1  0.326959829558  0.163176000000
 CN7B  OSIA  1  0.326959829558  0.163176000000
 CN7B   OAL  1  0.326959829558  0.163176000000
 CN7B    HT  1  0.189271432669  0.089736802707
 CN7B    OT  1  0.326799467788  0.163176000000
 CN7B   DUM  1  0.169270756447  0.000000000000
 CN7B    CM  1  0.356359487256  0.138767581228
 CN7B   CPA  1  0.329632525712  0.125520000000
 CN7B   CPB  1  0.329632525712  0.125520000000
 CN7B   CPM  1  0.329632525712  0.125520000000
 CN7B   CST  1  0.308518226092  0.100764063435
 CN7B  CT1X  1  0.338541512893  0.041840000000
 CN7B  CT2X  1  0.338541512893  0.041840000000
 CN7B  CT3X  1  0.338541512893  0.041840000000
 CN7B    HB  1  0.286869387241  0.062058748940
 CN7B   NPH  1  0.334087019303  0.187114168357
 CN7B    OM  1  0.320723538531  0.144938011577
 CN7B   OST  1  0.320010819556  0.169954883425
 CN7B   POT  1  0.326403017859  0.123410269913
 CN7B   CAL  1  0.291056611216  0.144938011577
 CN7B    MG  1  0.274842254546  0.051243325419
 CN7B   CES  1  0.356359487256  0.182376331798
 CN7B    ZN  1  0.266378716724  0.209200000000
 CN7B    FE  1  0.227179173126  0.000000000000
 CN7B    HE  1  0.301123766731  0.061020452073
 CN7B    NE  1  0.305578260322  0.122698965603
 CN7B  CLAL  1  0.339272049842  0.072469005789
 CN7B    AG  1  0.300901042052  0.893457908130
 CN7B    AU  1  0.300722862308  0.962320000000
 CN7B    CU  1  0.285800308779  0.908997471504
 CN7B    NI  1  0.282949432881  0.994525446633
 CN7B    PB  1  0.328073452955  0.716185437439
 CN7B    PD  1  0.294842930769  1.037598257516
 CN7B    PT  1  0.296001099102  1.168527606863
 CN7B   CAP  1  0.346773417049  0.110698234855
 CN7B    FA  1  0.320723538531  0.144938011577
 CN7B    CN  1  0.325178032121  0.187114168357
 CN7B    NC  1  0.334087019303  0.324091246411
 CN7B   OCA  1  0.293996576986  0.144938011577
 CN7B   COA  1  0.347450500075  0.138767581228
 CN7B   CF1  1  0.338541512893  0.102486650838
 CN7B   CF2  1  0.351904993665  0.085746484010
 CN7B   CF3  1  0.374177461619  0.059170695450
 CN7B   HF1  1  0.286869387241  0.070011711020
 CN7B   HF2  1  0.285087589805  0.072469005789
 CN7B    F1  1  0.314487247504  0.153729976257
 CN7B    F2  1  0.314487247504  0.135577095411
 CN7B    F3  1  0.311814551349  0.130309939452
 CN7B    OX  1  0.320723538531  0.144938011577
 CN7B    HX  1  0.189271432669  0.089736802707
 CN7B  HPER  1  0.189271432669  0.089736802707
 CN7B  OPER  1  0.318427692534  0.188901923946
 CN7B   LIT  1  0.284864865125  0.020196198771
 CN7B   RUB  1  0.338541512893  0.162045623205
 CN7B   BAR  1  0.337650614175  0.162045623205
 CN7B   CAD  1  0.290165712498  0.144938011577
 CN7B  ON2B  1  0.326959829558  0.163176000000
 CN7B    SP  1  0.365268474438  0.280671252536
 CN7B   HNP  1  0.290272620344  0.072469005789
 CN7B  HNE1  1  0.280633096214  0.073666921749
 CN7B  HNE2  1  0.281523994932  0.067464972838
 CN7B  CN3D  1  0.338541512893  0.125520000000
 CN7B  CNE1  1  0.355468588538  0.109105371453
 CN7B  CNE2  1  0.354577689820  0.105847757841
 CN7B   CNA  1  0.346773417049  0.110698234855
 CN7B  CNA2  1  0.338541512893  0.110698234855
 CN7B   CNG  1  0.347450500075  0.138767581228
 CN7B  NN1C  1  0.334087019303  0.187114168357
 CN7B  NN2C  1  0.334087019303  0.187114168357
 CN7B  NN3I  1  0.334087019303  0.187114168357
 CN7B   NNG  1  0.334087019303  0.187114168357
 CN7B   FNA  1  0.320723538531  0.144938011577
 CN7B  ON2M  1  0.316269044940  0.132309697301
 CN7B   CN6  1  0.338541512893  0.041840000000
 CN7B  CN7E  1  0.338541512893  0.041840000000
 CN7B  CT2P  1  0.338541512893  0.041840000000
 CN7B  CTD1  1  0.338541512893  0.041840000000
 CN7B  CPD1  1  0.338541512893  0.041840000000
 CN7B  CC1A  1  0.355468588538  0.109105371453
 CN7B  CC1B  1  0.355468588538  0.109105371453
 CN7B   CC2  1  0.354577689820  0.105847757841
 CN7B   NS1  1  0.334087019303  0.187114168357
 CN7B   NS2  1  0.334087019303  0.187114168357
 CN7B   NHL  1  0.307360057758  0.187114168357
 CN7B  CTO1  1  0.338541512893  0.041840000000
 CN7B  CEL3  1  0.355468588538  0.109105371453
 CN7B  CTO2  1  0.338541512893  0.041840000000
 CN7B  HN3B  1  0.249451641079  0.089736802707
 CN7B  CN1A  1  0.347450500075  0.110698234855
 CN7B  CN3A  1  0.329632525712  0.177512086349
 CN7B  CN3B  1  0.329632525712  0.177512086349
 CN7B  CN3C  1  0.329632525712  0.177512086349
  CN8     C  1  0.347450500075  0.138767581228
  CN8    CA  1  0.346773417049  0.110698234855
  CN8    CC  1  0.347450500075  0.110698234855
  CN8    CD  1  0.347450500075  0.110698234855
  CN8   CE1  1  0.355468588538  0.109105371453
  CN8   CE2  1  0.354577689820  0.105847757841
  CN8   CP1  1  0.338541512893  0.041840000000
  CN8   CP2  1  0.338541512893  0.041840000000
  CN8   CP3  1  0.338541512893  0.041840000000
  CN8  CPH1  1  0.329632525712  0.093557084179
  CN8  CPH2  1  0.329632525712  0.093557084179
  CN8    CS  1  0.365268474438  0.138767581228
  CN8   CPT  1  0.334977918021  0.131646486622
  CN8    CY  1  0.346559601357  0.113045454929
  CN8   CAI  1  0.346559601357  0.113045454929
  CN8    CT  1  0.338541512893  0.041840000000
  CN8   CT1  1  0.338541512893  0.041840000000
  CN8   CT2  1  0.338541512893  0.041840000000
  CN8  CT2A  1  0.338541512893  0.041840000000
  CN8   CT3  1  0.338541512893  0.041840000000
  CN8    C3  1  0.371950214824  0.059170695450
  CN8     H  1  0.189271432669  0.089736802707
  CN8    HA  1  0.286869387241  0.062058748940
  CN8   HB1  1  0.286869387241  0.062058748940
  CN8   HB2  1  0.288651184677  0.070011711020
  CN8   HE1  1  0.280633096214  0.073666921749
  CN8   HE2  1  0.281523994932  0.067464972838
  CN8    HC  1  0.189271432669  0.089736802707
  CN8    HP  1  0.290272620344  0.072469005789
  CN8   HR1  1  0.249451641079  0.089736802707
  CN8   HR2  1  0.231633666716  0.089736802707
  CN8   HR3  1  0.300054688270  0.036952087465
  CN8    HS  1  0.209361198763  0.132309697301
  CN8   HA1  1  0.288651184677  0.088756043175
  CN8   HA2  1  0.288651184677  0.077149148019
  CN8   HA3  1  0.288651184677  0.064818249282
  CN8     N  1  0.334087019303  0.004184000000
  CN8   NC2  1  0.334087019303  0.187114168357
  CN8   NH1  1  0.307360057758  0.187114168357
  CN8   NH2  1  0.334087019303  0.187114168357
  CN8   NH3  1  0.334087019303  0.187114168357
  CN8    NP  1  0.334087019303  0.187114168357
  CN8   NR1  1  0.334087019303  0.187114168357
  CN8   NR2  1  0.334087019303  0.187114168357
  CN8   NR3  1  0.334087019303  0.187114168357
  CN8    NY  1  0.334087019303  0.187114168357
  CN8     O  1  0.293996576986  0.144938011577
  CN8    OB  1  0.293996576986  0.144938011577
  CN8    OC  1  0.320723538531  0.144938011577
  CN8   OH1  1  0.326959829558  0.163176000000
  CN8    OS  1  0.326959829558  0.163176000000
  CN8     S  1  0.347450500075  0.280671252536
  CN8    SM  1  0.345223253279  0.257919081884
  CN8    SS  1  0.365268474438  0.286840588481
  CN8  HGA1  1  0.288651184677  0.088756043175
  CN8  HGA2  1  0.288651184677  0.078275472531
  CN8  HGA3  1  0.288651184677  0.064818249282
  CN8  HGA4  1  0.280633096214  0.073666921749
  CN8  HGA5  1  0.281523994932  0.067464972838
  CN8  HGA6  1  0.286869387241  0.070011711020
  CN8  HGA7  1  0.285087589805  0.072469005789
  CN8 HGAAM0  1  0.283305792369  0.070011711020
  CN8 HGAAM1  1  0.283305792369  0.070011711020
  CN8 HGAAM2  1  0.281523994932  0.083680000000
  CN8  HGP1  1  0.189271432669  0.089736802707
  CN8  HGP2  1  0.189271432669  0.089736802707
  CN8  HGP3  1  0.209361198763  0.132309697301
  CN8  HGP4  1  0.189271432669  0.089736802707
  CN8  HGP5  1  0.231633666716  0.089736802707
  CN8 HGPAM1  1  0.247224394284  0.039692909190
  CN8 HGPAM2  1  0.247224394284  0.041840000000
  CN8 HGPAM3  1  0.246778944925  0.045833423612
  CN8 HGR51  1  0.290272620344  0.072469005789
  CN8 HGR52  1  0.249451641079  0.089736802707
  CN8 HGR53  1  0.231633666716  0.089736802707
  CN8 HGR61  1  0.290272620344  0.072469005789
  CN8 HGR62  1  0.267269615442  0.089736802707
  CN8 HGR63  1  0.249451641079  0.089736802707
  CN8 HGR71  1  0.290272620344  0.072469005789
  CN8 HGTIP3  1  0.189271432669  0.089736802707
  CN8 CG1T1  1  0.333196120584  0.170981810495
  CN8 CG1T2  1  0.346782326036  0.134409982486
  CN8 CG1N1  1  0.335868816739  0.177512086349
  CN8 CG2D1  1  0.355468588538  0.109105371453
  CN8 CG2D2  1  0.354577689820  0.105847757841
  CN8 CG2D1O  1  0.355468588538  0.109105371453
  CN8 CG2D2O  1  0.355468588538  0.109105371453
  CN8 CG2DC1  1  0.355468588538  0.109105371453
  CN8 CG2DC2  1  0.355468588538  0.109105371453
  CN8 CG2DC3  1  0.354577689820  0.105847757841
  CN8 CG2N1  1  0.347450500075  0.138767581228
  CN8 CG2N2  1  0.347450500075  0.138767581228
  CN8 CG2O1  1  0.347450500075  0.138767581228
  CN8 CG2O2  1  0.320723538531  0.130979917850
  CN8 CG2O3  1  0.347450500075  0.110698234855
  CN8 CG2O4  1  0.329632525712  0.102486650838
  CN8 CG2O5  1  0.347450500075  0.125520000000
  CN8 CG2O6  1  0.347450500075  0.110698234855
  CN8 CG2O7  1  0.308518226092  0.100764063435
  CN8 CG2R51  1  0.356359487256  0.093557084179
  CN8 CG2R52  1  0.365268474438  0.059170695450
  CN8 CG2R53  1  0.365268474438  0.059170695450
  CN8 CG2R57  1  0.356359487256  0.093557084179
  CN8 CG25C1  1  0.355468588538  0.109105371453
  CN8 CG25C2  1  0.355468588538  0.109105371453
  CN8 CG251O  1  0.355468588538  0.109105371453
  CN8 CG252O  1  0.355468588538  0.109105371453
  CN8 CG2R61  1  0.346773417049  0.110698234855
  CN8 CG2R62  1  0.338541512893  0.125520000000
  CN8 CG2R63  1  0.338541512893  0.132309697301
  CN8 CG2R64  1  0.356359487256  0.083680000000
  CN8 CG2R66  1  0.338541512893  0.110698234855
  CN8 CG2R67  1  0.346773417049  0.110698234855
  CN8 CG2RC0  1  0.334977918021  0.131646486622
  CN8 CG2R71  1  0.346987232741  0.108300154755
  CN8 CG2RC7  1  0.334977918021  0.131646486622
  CN8 CG301  1  0.338541512893  0.041840000000
  CN8 CG302  1  0.374177461619  0.059170695450
  CN8 CG311  1  0.338541512893  0.041840000000
  CN8 CG312  1  0.351904993665  0.085746484010
  CN8 CG314  1  0.338541512893  0.041840000000
  CN8 CG321  1  0.338541512893  0.041840000000
  CN8 CG322  1  0.338541512893  0.102486650838
  CN8 CG323  1  0.365268474438  0.138767581228
  CN8 CG324  1  0.338541512893  0.041840000000
  CN8 CG331  1  0.338541512893  0.041840000000
  CN8 CG334  1  0.338541512893  0.041840000000
  CN8 CG3C50  1  0.338541512893  0.041840000000
  CN8 CG3C51  1  0.338541512893  0.041840000000
  CN8 CG3C52  1  0.338541512893  0.041840000000
  CN8 CG3C53  1  0.338541512893  0.041840000000
  CN8 CG3C54  1  0.338541512893  0.041840000000
  CN8 CG3C31  1  0.338541512893  0.041840000000
  CN8 CG3C41  1  0.338541512893  0.041840000000
  CN8 CG3RC1  1  0.338541512893  0.041840000000
  CN8 CG3AM0  1  0.344777803920  0.110698234855
  CN8 CG3AM1  1  0.345668702638  0.116852760686
  CN8 CG3AM2  1  0.346559601357  0.118341390899
  CN8 NG1T1  1  0.328741626994  0.177512086349
  CN8 NG2D1  1  0.334087019303  0.187114168357
  CN8 NG2S0  1  0.334087019303  0.004184000000
  CN8 NG2S1  1  0.307360057758  0.187114168357
  CN8 NG2S2  1  0.334087019303  0.187114168357
  CN8 NG2S3  1  0.334087019303  0.187114168357
  CN8 NG2O1  1  0.334087019303  0.187114168357
  CN8 NG2P1  1  0.334087019303  0.187114168357
  CN8 NG2R43  1  0.334087019303  0.187114168357
  CN8 NG2R50  1  0.334087019303  0.187114168357
  CN8 NG2R51  1  0.334087019303  0.187114168357
  CN8 NG2R52  1  0.334087019303  0.187114168357
  CN8 NG2R53  1  0.334087019303  0.187114168357
  CN8 NG2R57  1  0.334087019303  0.187114168357
  CN8 NG2R60  1  0.337650614175  0.102486650838
  CN8 NG2R61  1  0.334087019303  0.187114168357
  CN8 NG2R62  1  0.352795892384  0.093557084179
  CN8 NG2R67  1  0.334087019303  0.187114168357
  CN8 NG2RC0  1  0.334087019303  0.187114168357
  CN8 NG301  1  0.347450500075  0.078275472531
  CN8 NG311  1  0.347450500075  0.088756043175
  CN8 NG321  1  0.346559601357  0.102486650838
  CN8 NG331  1  0.345668702638  0.110698234855
  CN8 NG3C51  1  0.334087019303  0.187114168357
  CN8 NG3N1  1  0.351904993665  0.102486650838
  CN8 NG3P0  1  0.334087019303  0.187114168357
  CN8 NG3P1  1  0.334087019303  0.187114168357
  CN8 NG3P2  1  0.334087019303  0.187114168357
  CN8 NG3P3  1  0.334087019303  0.187114168357
  CN8 OG2D1  1  0.293996576986  0.144938011577
  CN8 OG2D2  1  0.320723538531  0.144938011577
  CN8 OG2D3  1  0.293996576986  0.144938011577
  CN8 OG2D4  1  0.320723538531  0.144938011577
  CN8 OG2D5  1  0.320010819556  0.169954883425
  CN8 OG2N1  1  0.320723538531  0.144938011577
  CN8 OG2P1  1  0.320723538531  0.144938011577
  CN8 OG2R50  1  0.320723538531  0.144938011577
  CN8 OG3R60  1  0.316269044940  0.132309697301
  CN8 OG301  1  0.316269044940  0.132309697301
  CN8 OG302  1  0.316269044940  0.132309697301
  CN8 OG303  1  0.316269044940  0.132309697301
  CN8 OG304  1  0.316269044940  0.132309697301
  CN8 OG311  1  0.326514380198  0.183381431383
  CN8 OG312  1  0.325178032121  0.144938011577
  CN8 OG3C31  1  0.316269044940  0.132309697301
  CN8 OG3C51  1  0.316269044940  0.132309697301
  CN8 OG3C61  1  0.316269044940  0.132309697301
  CN8 OGTIP3  1  0.326799467788  0.163176000000
  CN8 SG2D1  1  0.351904993665  0.314496560236
  CN8 SG2R50  1  0.347450500075  0.280671252536
  CN8 SG311  1  0.347450500075  0.280671252536
  CN8 SG301  1  0.345223253279  0.257919081884
  CN8 SG302  1  0.365268474438  0.286840588481
  CN8 SG3O1  1  0.356359487256  0.286840588481
  CN8 SG3O2  1  0.347450500075  0.247528778125
  CN8 SG3O3  1  0.347450500075  0.247528778125
  CN8  FGA1  1  0.314487247504  0.153729976257
  CN8  FGA2  1  0.314487247504  0.135577095411
  CN8  FGA3  1  0.311814551349  0.130309939452
  CN8  FGP1  1  0.311814551349  0.130309939452
  CN8  FGR1  1  0.320723538531  0.144938011577
  CN8 CLGA1  1  0.339432411611  0.245040988571
  CN8 CLGA3  1  0.339432411611  0.232955260941
  CN8 BRGA1  1  0.344777803920  0.289876023155
  CN8 BRGA2  1  0.351904993665  0.304599797767
  CN8 BRGA3  1  0.347450500075  0.307459952514
  CN8   SOD  1  0.294954293108  0.090610410351
  CN8   CLA  1  0.371504765465  0.162045623205
  CN8   PG0  1  0.360813980847  0.320014464673
  CN8   PG1  1  0.360813980847  0.320014464673
  CN8   PG2  1  0.360813980847  0.320014464673
  CN8  ALG1  1  0.347450500075  0.337324864189
  CN8   LPH  1  0.169270756447  0.000000000000
  CN8 CLGR1  1  0.334977918021  0.200657590935
  CN8 BRGR1  1  0.345668702638  0.236682781799
  CN8  IGR1  1  0.368832069310  0.301712530731
  CN8 SG2P1  1  0.355798221064  0.332305491450
  CN8 OG2S1  1  0.318906105146  0.157831660601
  CN8 SG2P2  1  0.352314807076  0.329421919951
  CN8 SEGD1  1  0.363041227642  0.330244580395
  CN8 BG201  1  0.396449929572  0.081561175077
  CN8 CC301  1  0.338541512893  0.041840000000
  CN8 CC3062  1  0.338541512893  0.041840000000
  CN8 CC311  1  0.338541512893  0.041840000000
  CN8 CC3161  1  0.338541512893  0.041840000000
  CN8 CC3162  1  0.338541512893  0.041840000000
  CN8 CC3163  1  0.338541512893  0.041840000000
  CN8 CC321  1  0.338541512893  0.041840000000
  CN8 CC3261  1  0.338541512893  0.041840000000
  CN8 CC3263  1  0.338541512893  0.041840000000
  CN8 CC331  1  0.338541512893  0.041840000000
  CN8 CC2O1  1  0.347450500075  0.138767581228
  CN8 CC2O2  1  0.347450500075  0.110698234855
  CN8 CC2O3  1  0.347450500075  0.125520000000
  CN8 CC2O4  1  0.329632525712  0.102486650838
  CN8 CC2O5  1  0.320723538531  0.130979917850
  CN8 OC2D1  1  0.293996576986  0.144938011577
  CN8 OC2D2  1  0.320723538531  0.144938011577
  CN8 OC2D3  1  0.293996576986  0.144938011577
  CN8 OC2D4  1  0.293996576986  0.144938011577
  CN8 OC3C61  1  0.316269044940  0.132309697301
  CN8 OC311  1  0.326514380198  0.183381431383
  CN8 NC2D1  1  0.307360057758  0.187114168357
  CN8  HCP1  1  0.189271432669  0.089736802707
  CN8  HCA1  1  0.288651184677  0.088756043175
  CN8  HCA2  1  0.288651184677  0.078275472531
  CN8  HCA3  1  0.288651184677  0.064818249282
  CN8 CC312  1  0.338541512893  0.041840000000
  CN8 CC322  1  0.338541512893  0.041840000000
  CN8  HCR1  1  0.240542653898  0.089736802707
  CN8 HCA3M  1  0.288651184677  0.064818249282
  CN8 CC321C  1  0.338541512893  0.041840000000
  CN8 CC321D  1  0.338541512893  0.041840000000
  CN8 CC311C  1  0.338541512893  0.041840000000
  CN8 CC311D  1  0.338541512893  0.041840000000
  CN8 OC301  1  0.316269044940  0.132309697301
  CN8 OC302  1  0.316269044940  0.132309697301
  CN8 HCP1M  1  0.189271432669  0.089736802707
  CN8 OC311M  1  0.326514380198  0.183381431383
  CN8 OC3C5M  1  0.316269044940  0.132309697301
  CN8 CC322C  1  0.338541512893  0.041840000000
  CN8 HCA2C2  1  0.285087589805  0.078275472531
  CN8 CC312C  1  0.338541512893  0.041840000000
  CN8 HCA1C2  1  0.288651184677  0.088756043175
  CN8 OC3C51  1  0.316269044940  0.132309697301
  CN8 CC3152  1  0.338541512893  0.041840000000
  CN8 CC3051  1  0.338541512893  0.041840000000
  CN8 CC3251  1  0.338541512893  0.041840000000
  CN8 CC3151  1  0.338541512893  0.041840000000
  CN8 CC3153  1  0.338541512893  0.041840000000
  CN8 OC2DP  1  0.320723538531  0.144938011577
  CN8 OC312  1  0.326959829558  0.163176000000
  CN8 OC30P  1  0.326959829558  0.163176000000
  CN8    PC  1  0.360813980847  0.320014464673
  CN8    SC  1  0.356359487256  0.286840588481
  CN8 CC312D  1  0.338541512893  0.041840000000
  CN8 OC303  1  0.316269044940  0.132309697301
  CN8 NC311  1  0.347450500075  0.088756043175
  CN8   HN1  1  0.189271432669  0.089736802707
  CN8   HN2  1  0.189271432669  0.089736802707
  CN8   HN3  1  0.267269615442  0.089736802707
  CN8   HN4  1  0.189271432669  0.089736802707
  CN8   HN5  1  0.189271432669  0.089736802707
  CN8   HN6  1  0.286869387241  0.062058748940
  CN8   HN7  1  0.286869387241  0.062058748940
  CN8   HN8  1  0.288651184677  0.070011711020
  CN8   HN9  1  0.288651184677  0.064818249282
  CN8   NN1  1  0.334087019303  0.187114168357
  CN8   NN2  1  0.334087019303  0.187114168357
  CN8  NN2B  1  0.334087019303  0.187114168357
  CN8  NN2G  1  0.334087019303  0.187114168357
  CN8  NN2U  1  0.334087019303  0.187114168357
  CN8   NN3  1  0.334087019303  0.187114168357
  CN8  NN3A  1  0.334087019303  0.187114168357
  CN8  NN3G  1  0.334087019303  0.187114168357
  CN8   NN4  1  0.334087019303  0.187114168357
  CN8   NN6  1  0.334087019303  0.187114168357
  CN8   ON1  1  0.320723538531  0.144938011577
  CN8  ON1C  1  0.320723538531  0.144938011577
  CN8   ON2  1  0.326959829558  0.163176000000
  CN8   ON3  1  0.320723538531  0.144938011577
  CN8   ON4  1  0.326959829558  0.163176000000
  CN8   ON5  1  0.326959829558  0.163176000000
  CN8   ON6  1  0.326959829558  0.163176000000
  CN8  ON6B  1  0.326959829558  0.163176000000
  CN8   CN1  1  0.338541512893  0.132309697301
  CN8  CN1T  1  0.338541512893  0.132309697301
  CN8   CN2  1  0.338541512893  0.132309697301
  CN8   CN3  1  0.338541512893  0.125520000000
  CN8  CN3T  1  0.338541512893  0.125520000000
  CN8   CN4  1  0.338541512893  0.114583559030
  CN8   CN5  1  0.338541512893  0.114583559030
  CN8  CN5G  1  0.338541512893  0.114583559030
  CN8   CN7  1  0.338541512893  0.041840000000
  CN8  CN7B  1  0.338541512893  0.041840000000
  CN8   CN8  1  0.338541512893  0.041840000000
  CN8  CN8B  1  0.338541512893  0.041840000000
  CN8   CN9  1  0.338541512893  0.041840000000
  CN8     P  1  0.360813980847  0.320014464673
  CN8    P2  1  0.360813980847  0.320014464673
  CN8    P3  1  0.360813980847  0.320014464673
  CN8    P4  1  0.360813980847  0.320014464673
  CN8   HOL  1  0.189271432669  0.089736802707
  CN8  HAL1  1  0.286869387241  0.062058748940
  CN8  HAL2  1  0.288651184677  0.070011711020
  CN8  HAL3  1  0.288651184677  0.064818249282
  CN8   HBL  1  0.286869387241  0.062058748940
  CN8   HCL  1  0.189271432669  0.089736802707
  CN8    HL  1  0.231633666716  0.089736802707
  CN8  HEL1  1  0.280633096214  0.073666921749
  CN8  HEL2  1  0.281523994932  0.067464972838
  CN8    CL  1  0.347450500075  0.110698234855
  CN8   CCL  1  0.347450500075  0.110698234855
  CN8  CTL1  1  0.338541512893  0.041840000000
  CN8  CTL2  1  0.338541512893  0.041840000000
  CN8  CTL3  1  0.338541512893  0.041840000000
  CN8  CTL5  1  0.338541512893  0.041840000000
  CN8  CEL1  1  0.355468588538  0.109105371453
  CN8  CEL2  1  0.354577689820  0.105847757841
  CN8  CRL1  1  0.338541512893  0.041840000000
  CN8  CRL2  1  0.338541512893  0.041840000000
  CN8   OBL  1  0.293996576986  0.144938011577
  CN8   OCL  1  0.320723538531  0.144938011577
  CN8   O2L  1  0.320723538531  0.144938011577
  CN8   OHL  1  0.326959829558  0.163176000000
  CN8   OSL  1  0.316269044940  0.132309697301
  CN8  OSLP  1  0.316269044940  0.132309697301
  CN8  NH3L  1  0.334087019303  0.187114168357
  CN8   NTL  1  0.334087019303  0.187114168357
  CN8    SL  1  0.356359487256  0.286840588481
  CN8    PL  1  0.360813980847  0.320014464673
  CN8 HCA1A  1  0.288651184677  0.088756043175
  CN8 HCA2A  1  0.288651184677  0.078275472531
  CN8 HCA3A  1  0.288651184677  0.064818249282
  CN8 CC30A  1  0.338541512893  0.041840000000
  CN8 CC31A  1  0.338541512893  0.041840000000
  CN8 CC32A  1  0.338541512893  0.041840000000
  CN8 CC33A  1  0.338541512893  0.041840000000
  CN8 CC326A  1  0.338541512893  0.041840000000
  CN8 HCA25A  1  0.285087589805  0.078275472531
  CN8 CC325A  1  0.338541512893  0.041840000000
  CN8 CC325B  1  0.338541512893  0.041840000000
  CN8 OC305A  1  0.316269044940  0.132309697301
  CN8 OC30A  1  0.316269044940  0.132309697301
  CN8  HSIO  1  0.189271432669  0.089736802707
  CN8  HSIA  1  0.286869387241  0.062058748940
  CN8   HAL  1  0.286869387241  0.062058748940
  CN8    AL  1  0.365268474438  0.337324864189
  CN8    SI  1  0.365268474438  0.324091246411
  CN8  SIH3  1  0.365268474438  0.324091246411
  CN8  OSIH  1  0.326959829558  0.163176000000
  CN8  OSIE  1  0.326959829558  0.163176000000
  CN8  OSIA  1  0.326959829558  0.163176000000
  CN8   OAL  1  0.326959829558  0.163176000000
  CN8    HT  1  0.189271432669  0.089736802707
  CN8    OT  1  0.326799467788  0.163176000000
  CN8   DUM  1  0.169270756447  0.000000000000
  CN8    CM  1  0.356359487256  0.138767581228
  CN8   CPA  1  0.329632525712  0.125520000000
  CN8   CPB  1  0.329632525712  0.125520000000
  CN8   CPM  1  0.329632525712  0.125520000000
  CN8   CST  1  0.308518226092  0.100764063435
  CN8  CT1X  1  0.338541512893  0.041840000000
  CN8  CT2X  1  0.338541512893  0.041840000000
  CN8  CT3X  1  0.338541512893  0.041840000000
  CN8    HB  1  0.286869387241  0.062058748940
  CN8   NPH  1  0.334087019303  0.187114168357
  CN8    OM  1  0.320723538531  0.144938011577
  CN8   OST  1  0.320010819556  0.169954883425
  CN8   POT  1  0.326403017859  0.123410269913
  CN8   CAL  1  0.291056611216  0.144938011577
  CN8    MG  1  0.274842254546  0.051243325419
  CN8   CES  1  0.356359487256  0.182376331798
  CN8    ZN  1  0.266378716724  0.209200000000
  CN8    FE  1  0.227179173126  0.000000000000
  CN8    HE  1  0.301123766731  0.061020452073
  CN8    NE  1  0.305578260322  0.122698965603
  CN8  CLAL  1  0.339272049842  0.072469005789
  CN8    AG  1  0.300901042052  0.893457908130
  CN8    AU  1  0.300722862308  0.962320000000
  CN8    CU  1  0.285800308779  0.908997471504
  CN8    NI  1  0.282949432881  0.994525446633
  CN8    PB  1  0.328073452955  0.716185437439
  CN8    PD  1  0.294842930769  1.037598257516
  CN8    PT  1  0.296001099102  1.168527606863
  CN8   CAP  1  0.346773417049  0.110698234855
  CN8    FA  1  0.320723538531  0.144938011577
  CN8    CN  1  0.325178032121  0.187114168357
  CN8    NC  1  0.334087019303  0.324091246411
  CN8   OCA  1  0.293996576986  0.144938011577
  CN8   COA  1  0.347450500075  0.138767581228
  CN8   CF1  1  0.338541512893  0.102486650838
  CN8   CF2  1  0.351904993665  0.085746484010
  CN8   CF3  1  0.374177461619  0.059170695450
  CN8   HF1  1  0.286869387241  0.070011711020
  CN8   HF2  1  0.285087589805  0.072469005789
  CN8    F1  1  0.314487247504  0.153729976257
  CN8    F2  1  0.314487247504  0.135577095411
  CN8    F3  1  0.311814551349  0.130309939452
  CN8    OX  1  0.320723538531  0.144938011577
  CN8    HX  1  0.189271432669  0.089736802707
  CN8  HPER  1  0.189271432669  0.089736802707
  CN8  OPER  1  0.318427692534  0.188901923946
  CN8   LIT  1  0.284864865125  0.020196198771
  CN8   RUB  1  0.338541512893  0.162045623205
  CN8   BAR  1  0.337650614175  0.162045623205
  CN8   CAD  1  0.290165712498  0.144938011577
  CN8  ON2B  1  0.326959829558  0.163176000000
  CN8    SP  1  0.365268474438  0.280671252536
  CN8   HNP  1  0.290272620344  0.072469005789
  CN8  HNE1  1  0.280633096214  0.073666921749
  CN8  HNE2  1  0.281523994932  0.067464972838
  CN8  CN3D  1  0.338541512893  0.125520000000
  CN8  CNE1  1  0.355468588538  0.109105371453
  CN8  CNE2  1  0.354577689820  0.105847757841
  CN8   CNA  1  0.346773417049  0.110698234855
  CN8  CNA2  1  0.338541512893  0.110698234855
  CN8   CNG  1  0.347450500075  0.138767581228
  CN8  NN1C  1  0.334087019303  0.187114168357
  CN8  NN2C  1  0.334087019303  0.187114168357
  CN8  NN3I  1  0.334087019303  0.187114168357
  CN8   NNG  1  0.334087019303  0.187114168357
  CN8   FNA  1  0.320723538531  0.144938011577
  CN8  ON2M  1  0.316269044940  0.132309697301
  CN8   CN6  1  0.338541512893  0.041840000000
  CN8  CN7E  1  0.338541512893  0.041840000000
  CN8  CT2P  1  0.338541512893  0.041840000000
  CN8  CTD1  1  0.338541512893  0.041840000000
  CN8  CPD1  1  0.338541512893  0.041840000000
  CN8  CC1A  1  0.355468588538  0.109105371453
  CN8  CC1B  1  0.355468588538  0.109105371453
  CN8   CC2  1  0.354577689820  0.105847757841
  CN8   NS1  1  0.334087019303  0.187114168357
  CN8   NS2  1  0.334087019303  0.187114168357
  CN8   NHL  1  0.307360057758  0.187114168357
  CN8  CTO1  1  0.338541512893  0.041840000000
  CN8  CEL3  1  0.355468588538  0.109105371453
  CN8  CTO2  1  0.338541512893  0.041840000000
  CN8  HN3B  1  0.249451641079  0.089736802707
  CN8  CN1A  1  0.347450500075  0.110698234855
  CN8  CN3A  1  0.329632525712  0.177512086349
  CN8  CN3B  1  0.329632525712  0.177512086349
  CN8  CN3C  1  0.329632525712  0.177512086349
 CN8B     C  1  0.347450500075  0.138767581228
 CN8B    CA  1  0.346773417049  0.110698234855
 CN8B    CC  1  0.347450500075  0.110698234855
 CN8B    CD  1  0.347450500075  0.110698234855
 CN8B   CE1  1  0.355468588538  0.109105371453
 CN8B   CE2  1  0.354577689820  0.105847757841
 CN8B   CP1  1  0.338541512893  0.041840000000
 CN8B   CP2  1  0.338541512893  0.041840000000
 CN8B   CP3  1  0.338541512893  0.041840000000
 CN8B  CPH1  1  0.329632525712  0.093557084179
 CN8B  CPH2  1  0.329632525712  0.093557084179
 CN8B    CS  1  0.365268474438  0.138767581228
 CN8B   CPT  1  0.334977918021  0.131646486622
 CN8B    CY  1  0.346559601357  0.113045454929
 CN8B   CAI  1  0.346559601357  0.113045454929
 CN8B    CT  1  0.338541512893  0.041840000000
 CN8B   CT1  1  0.338541512893  0.041840000000
 CN8B   CT2  1  0.338541512893  0.041840000000
 CN8B  CT2A  1  0.338541512893  0.041840000000
 CN8B   CT3  1  0.338541512893  0.041840000000
 CN8B    C3  1  0.371950214824  0.059170695450
 CN8B     H  1  0.189271432669  0.089736802707
 CN8B    HA  1  0.286869387241  0.062058748940
 CN8B   HB1  1  0.286869387241  0.062058748940
 CN8B   HB2  1  0.288651184677  0.070011711020
 CN8B   HE1  1  0.280633096214  0.073666921749
 CN8B   HE2  1  0.281523994932  0.067464972838
 CN8B    HC  1  0.189271432669  0.089736802707
 CN8B    HP  1  0.290272620344  0.072469005789
 CN8B   HR1  1  0.249451641079  0.089736802707
 CN8B   HR2  1  0.231633666716  0.089736802707
 CN8B   HR3  1  0.300054688270  0.036952087465
 CN8B    HS  1  0.209361198763  0.132309697301
 CN8B   HA1  1  0.288651184677  0.088756043175
 CN8B   HA2  1  0.288651184677  0.077149148019
 CN8B   HA3  1  0.288651184677  0.064818249282
 CN8B     N  1  0.334087019303  0.004184000000
 CN8B   NC2  1  0.334087019303  0.187114168357
 CN8B   NH1  1  0.307360057758  0.187114168357
 CN8B   NH2  1  0.334087019303  0.187114168357
 CN8B   NH3  1  0.334087019303  0.187114168357
 CN8B    NP  1  0.334087019303  0.187114168357
 CN8B   NR1  1  0.334087019303  0.187114168357
 CN8B   NR2  1  0.334087019303  0.187114168357
 CN8B   NR3  1  0.334087019303  0.187114168357
 CN8B    NY  1  0.334087019303  0.187114168357
 CN8B     O  1  0.293996576986  0.144938011577
 CN8B    OB  1  0.293996576986  0.144938011577
 CN8B    OC  1  0.320723538531  0.144938011577
 CN8B   OH1  1  0.326959829558  0.163176000000
 CN8B    OS  1  0.326959829558  0.163176000000
 CN8B     S  1  0.347450500075  0.280671252536
 CN8B    SM  1  0.345223253279  0.257919081884
 CN8B    SS  1  0.365268474438  0.286840588481
 CN8B  HGA1  1  0.288651184677  0.088756043175
 CN8B  HGA2  1  0.288651184677  0.078275472531
 CN8B  HGA3  1  0.288651184677  0.064818249282
 CN8B  HGA4  1  0.280633096214  0.073666921749
 CN8B  HGA5  1  0.281523994932  0.067464972838
 CN8B  HGA6  1  0.286869387241  0.070011711020
 CN8B  HGA7  1  0.285087589805  0.072469005789
 CN8B HGAAM0  1  0.283305792369  0.070011711020
 CN8B HGAAM1  1  0.283305792369  0.070011711020
 CN8B HGAAM2  1  0.281523994932  0.083680000000
 CN8B  HGP1  1  0.189271432669  0.089736802707
 CN8B  HGP2  1  0.189271432669  0.089736802707
 CN8B  HGP3  1  0.209361198763  0.132309697301
 CN8B  HGP4  1  0.189271432669  0.089736802707
 CN8B  HGP5  1  0.231633666716  0.089736802707
 CN8B HGPAM1  1  0.247224394284  0.039692909190
 CN8B HGPAM2  1  0.247224394284  0.041840000000
 CN8B HGPAM3  1  0.246778944925  0.045833423612
 CN8B HGR51  1  0.290272620344  0.072469005789
 CN8B HGR52  1  0.249451641079  0.089736802707
 CN8B HGR53  1  0.231633666716  0.089736802707
 CN8B HGR61  1  0.290272620344  0.072469005789
 CN8B HGR62  1  0.267269615442  0.089736802707
 CN8B HGR63  1  0.249451641079  0.089736802707
 CN8B HGR71  1  0.290272620344  0.072469005789
 CN8B HGTIP3  1  0.189271432669  0.089736802707
 CN8B CG1T1  1  0.333196120584  0.170981810495
 CN8B CG1T2  1  0.346782326036  0.134409982486
 CN8B CG1N1  1  0.335868816739  0.177512086349
 CN8B CG2D1  1  0.355468588538  0.109105371453
 CN8B CG2D2  1  0.354577689820  0.105847757841
 CN8B CG2D1O  1  0.355468588538  0.109105371453
 CN8B CG2D2O  1  0.355468588538  0.109105371453
 CN8B CG2DC1  1  0.355468588538  0.109105371453
 CN8B CG2DC2  1  0.355468588538  0.109105371453
 CN8B CG2DC3  1  0.354577689820  0.105847757841
 CN8B CG2N1  1  0.347450500075  0.138767581228
 CN8B CG2N2  1  0.347450500075  0.138767581228
 CN8B CG2O1  1  0.347450500075  0.138767581228
 CN8B CG2O2  1  0.320723538531  0.130979917850
 CN8B CG2O3  1  0.347450500075  0.110698234855
 CN8B CG2O4  1  0.329632525712  0.102486650838
 CN8B CG2O5  1  0.347450500075  0.125520000000
 CN8B CG2O6  1  0.347450500075  0.110698234855
 CN8B CG2O7  1  0.308518226092  0.100764063435
 CN8B CG2R51  1  0.356359487256  0.093557084179
 CN8B CG2R52  1  0.365268474438  0.059170695450
 CN8B CG2R53  1  0.365268474438  0.059170695450
 CN8B CG2R57  1  0.356359487256  0.093557084179
 CN8B CG25C1  1  0.355468588538  0.109105371453
 CN8B CG25C2  1  0.355468588538  0.109105371453
 CN8B CG251O  1  0.355468588538  0.109105371453
 CN8B CG252O  1  0.355468588538  0.109105371453
 CN8B CG2R61  1  0.346773417049  0.110698234855
 CN8B CG2R62  1  0.338541512893  0.125520000000
 CN8B CG2R63  1  0.338541512893  0.132309697301
 CN8B CG2R64  1  0.356359487256  0.083680000000
 CN8B CG2R66  1  0.338541512893  0.110698234855
 CN8B CG2R67  1  0.346773417049  0.110698234855
 CN8B CG2RC0  1  0.334977918021  0.131646486622
 CN8B CG2R71  1  0.346987232741  0.108300154755
 CN8B CG2RC7  1  0.334977918021  0.131646486622
 CN8B CG301  1  0.338541512893  0.041840000000
 CN8B CG302  1  0.374177461619  0.059170695450
 CN8B CG311  1  0.338541512893  0.041840000000
 CN8B CG312  1  0.351904993665  0.085746484010
 CN8B CG314  1  0.338541512893  0.041840000000
 CN8B CG321  1  0.338541512893  0.041840000000
 CN8B CG322  1  0.338541512893  0.102486650838
 CN8B CG323  1  0.365268474438  0.138767581228
 CN8B CG324  1  0.338541512893  0.041840000000
 CN8B CG331  1  0.338541512893  0.041840000000
 CN8B CG334  1  0.338541512893  0.041840000000
 CN8B CG3C50  1  0.338541512893  0.041840000000
 CN8B CG3C51  1  0.338541512893  0.041840000000
 CN8B CG3C52  1  0.338541512893  0.041840000000
 CN8B CG3C53  1  0.338541512893  0.041840000000
 CN8B CG3C54  1  0.338541512893  0.041840000000
 CN8B CG3C31  1  0.338541512893  0.041840000000
 CN8B CG3C41  1  0.338541512893  0.041840000000
 CN8B CG3RC1  1  0.338541512893  0.041840000000
 CN8B CG3AM0  1  0.344777803920  0.110698234855
 CN8B CG3AM1  1  0.345668702638  0.116852760686
 CN8B CG3AM2  1  0.346559601357  0.118341390899
 CN8B NG1T1  1  0.328741626994  0.177512086349
 CN8B NG2D1  1  0.334087019303  0.187114168357
 CN8B NG2S0  1  0.334087019303  0.004184000000
 CN8B NG2S1  1  0.307360057758  0.187114168357
 CN8B NG2S2  1  0.334087019303  0.187114168357
 CN8B NG2S3  1  0.334087019303  0.187114168357
 CN8B NG2O1  1  0.334087019303  0.187114168357
 CN8B NG2P1  1  0.334087019303  0.187114168357
 CN8B NG2R43  1  0.334087019303  0.187114168357
 CN8B NG2R50  1  0.334087019303  0.187114168357
 CN8B NG2R51  1  0.334087019303  0.187114168357
 CN8B NG2R52  1  0.334087019303  0.187114168357
 CN8B NG2R53  1  0.334087019303  0.187114168357
 CN8B NG2R57  1  0.334087019303  0.187114168357
 CN8B NG2R60  1  0.337650614175  0.102486650838
 CN8B NG2R61  1  0.334087019303  0.187114168357
 CN8B NG2R62  1  0.352795892384  0.093557084179
 CN8B NG2R67  1  0.334087019303  0.187114168357
 CN8B NG2RC0  1  0.334087019303  0.187114168357
 CN8B NG301  1  0.347450500075  0.078275472531
 CN8B NG311  1  0.347450500075  0.088756043175
 CN8B NG321  1  0.346559601357  0.102486650838
 CN8B NG331  1  0.345668702638  0.110698234855
 CN8B NG3C51  1  0.334087019303  0.187114168357
 CN8B NG3N1  1  0.351904993665  0.102486650838
 CN8B NG3P0  1  0.334087019303  0.187114168357
 CN8B NG3P1  1  0.334087019303  0.187114168357
 CN8B NG3P2  1  0.334087019303  0.187114168357
 CN8B NG3P3  1  0.334087019303  0.187114168357
 CN8B OG2D1  1  0.293996576986  0.144938011577
 CN8B OG2D2  1  0.320723538531  0.144938011577
 CN8B OG2D3  1  0.293996576986  0.144938011577
 CN8B OG2D4  1  0.320723538531  0.144938011577
 CN8B OG2D5  1  0.320010819556  0.169954883425
 CN8B OG2N1  1  0.320723538531  0.144938011577
 CN8B OG2P1  1  0.320723538531  0.144938011577
 CN8B OG2R50  1  0.320723538531  0.144938011577
 CN8B OG3R60  1  0.316269044940  0.132309697301
 CN8B OG301  1  0.316269044940  0.132309697301
 CN8B OG302  1  0.316269044940  0.132309697301
 CN8B OG303  1  0.316269044940  0.132309697301
 CN8B OG304  1  0.316269044940  0.132309697301
 CN8B OG311  1  0.326514380198  0.183381431383
 CN8B OG312  1  0.325178032121  0.144938011577
 CN8B OG3C31  1  0.316269044940  0.132309697301
 CN8B OG3C51  1  0.316269044940  0.132309697301
 CN8B OG3C61  1  0.316269044940  0.132309697301
 CN8B OGTIP3  1  0.326799467788  0.163176000000
 CN8B SG2D1  1  0.351904993665  0.314496560236
 CN8B SG2R50  1  0.347450500075  0.280671252536
 CN8B SG311  1  0.347450500075  0.280671252536
 CN8B SG301  1  0.345223253279  0.257919081884
 CN8B SG302  1  0.365268474438  0.286840588481
 CN8B SG3O1  1  0.356359487256  0.286840588481
 CN8B SG3O2  1  0.347450500075  0.247528778125
 CN8B SG3O3  1  0.347450500075  0.247528778125
 CN8B  FGA1  1  0.314487247504  0.153729976257
 CN8B  FGA2  1  0.314487247504  0.135577095411
 CN8B  FGA3  1  0.311814551349  0.130309939452
 CN8B  FGP1  1  0.311814551349  0.130309939452
 CN8B  FGR1  1  0.320723538531  0.144938011577
 CN8B CLGA1  1  0.339432411611  0.245040988571
 CN8B CLGA3  1  0.339432411611  0.232955260941
 CN8B BRGA1  1  0.344777803920  0.289876023155
 CN8B BRGA2  1  0.351904993665  0.304599797767
 CN8B BRGA3  1  0.347450500075  0.307459952514
 CN8B   SOD  1  0.294954293108  0.090610410351
 CN8B   CLA  1  0.371504765465  0.162045623205
 CN8B   PG0  1  0.360813980847  0.320014464673
 CN8B   PG1  1  0.360813980847  0.320014464673
 CN8B   PG2  1  0.360813980847  0.320014464673
 CN8B  ALG1  1  0.347450500075  0.337324864189
 CN8B   LPH  1  0.169270756447  0.000000000000
 CN8B CLGR1  1  0.334977918021  0.200657590935
 CN8B BRGR1  1  0.345668702638  0.236682781799
 CN8B  IGR1  1  0.368832069310  0.301712530731
 CN8B SG2P1  1  0.355798221064  0.332305491450
 CN8B OG2S1  1  0.318906105146  0.157831660601
 CN8B SG2P2  1  0.352314807076  0.329421919951
 CN8B SEGD1  1  0.363041227642  0.330244580395
 CN8B BG201  1  0.396449929572  0.081561175077
 CN8B CC301  1  0.338541512893  0.041840000000
 CN8B CC3062  1  0.338541512893  0.041840000000
 CN8B CC311  1  0.338541512893  0.041840000000
 CN8B CC3161  1  0.338541512893  0.041840000000
 CN8B CC3162  1  0.338541512893  0.041840000000
 CN8B CC3163  1  0.338541512893  0.041840000000
 CN8B CC321  1  0.338541512893  0.041840000000
 CN8B CC3261  1  0.338541512893  0.041840000000
 CN8B CC3263  1  0.338541512893  0.041840000000
 CN8B CC331  1  0.338541512893  0.041840000000
 CN8B CC2O1  1  0.347450500075  0.138767581228
 CN8B CC2O2  1  0.347450500075  0.110698234855
 CN8B CC2O3  1  0.347450500075  0.125520000000
 CN8B CC2O4  1  0.329632525712  0.102486650838
 CN8B CC2O5  1  0.320723538531  0.130979917850
 CN8B OC2D1  1  0.293996576986  0.144938011577
 CN8B OC2D2  1  0.320723538531  0.144938011577
 CN8B OC2D3  1  0.293996576986  0.144938011577
 CN8B OC2D4  1  0.293996576986  0.144938011577
 CN8B OC3C61  1  0.316269044940  0.132309697301
 CN8B OC311  1  0.326514380198  0.183381431383
 CN8B NC2D1  1  0.307360057758  0.187114168357
 CN8B  HCP1  1  0.189271432669  0.089736802707
 CN8B  HCA1  1  0.288651184677  0.088756043175
 CN8B  HCA2  1  0.288651184677  0.078275472531
 CN8B  HCA3  1  0.288651184677  0.064818249282
 CN8B CC312  1  0.338541512893  0.041840000000
 CN8B CC322  1  0.338541512893  0.041840000000
 CN8B  HCR1  1  0.240542653898  0.089736802707
 CN8B HCA3M  1  0.288651184677  0.064818249282
 CN8B CC321C  1  0.338541512893  0.041840000000
 CN8B CC321D  1  0.338541512893  0.041840000000
 CN8B CC311C  1  0.338541512893  0.041840000000
 CN8B CC311D  1  0.338541512893  0.041840000000
 CN8B OC301  1  0.316269044940  0.132309697301
 CN8B OC302  1  0.316269044940  0.132309697301
 CN8B HCP1M  1  0.189271432669  0.089736802707
 CN8B OC311M  1  0.326514380198  0.183381431383
 CN8B OC3C5M  1  0.316269044940  0.132309697301
 CN8B CC322C  1  0.338541512893  0.041840000000
 CN8B HCA2C2  1  0.285087589805  0.078275472531
 CN8B CC312C  1  0.338541512893  0.041840000000
 CN8B HCA1C2  1  0.288651184677  0.088756043175
 CN8B OC3C51  1  0.316269044940  0.132309697301
 CN8B CC3152  1  0.338541512893  0.041840000000
 CN8B CC3051  1  0.338541512893  0.041840000000
 CN8B CC3251  1  0.338541512893  0.041840000000
 CN8B CC3151  1  0.338541512893  0.041840000000
 CN8B CC3153  1  0.338541512893  0.041840000000
 CN8B OC2DP  1  0.320723538531  0.144938011577
 CN8B OC312  1  0.326959829558  0.163176000000
 CN8B OC30P  1  0.326959829558  0.163176000000
 CN8B    PC  1  0.360813980847  0.320014464673
 CN8B    SC  1  0.356359487256  0.286840588481
 CN8B CC312D  1  0.338541512893  0.041840000000
 CN8B OC303  1  0.316269044940  0.132309697301
 CN8B NC311  1  0.347450500075  0.088756043175
 CN8B   HN1  1  0.189271432669  0.089736802707
 CN8B   HN2  1  0.189271432669  0.089736802707
 CN8B   HN3  1  0.267269615442  0.089736802707
 CN8B   HN4  1  0.189271432669  0.089736802707
 CN8B   HN5  1  0.189271432669  0.089736802707
 CN8B   HN6  1  0.286869387241  0.062058748940
 CN8B   HN7  1  0.286869387241  0.062058748940
 CN8B   HN8  1  0.288651184677  0.070011711020
 CN8B   HN9  1  0.288651184677  0.064818249282
 CN8B   NN1  1  0.334087019303  0.187114168357
 CN8B   NN2  1  0.334087019303  0.187114168357
 CN8B  NN2B  1  0.334087019303  0.187114168357
 CN8B  NN2G  1  0.334087019303  0.187114168357
 CN8B  NN2U  1  0.334087019303  0.187114168357
 CN8B   NN3  1  0.334087019303  0.187114168357
 CN8B  NN3A  1  0.334087019303  0.187114168357
 CN8B  NN3G  1  0.334087019303  0.187114168357
 CN8B   NN4  1  0.334087019303  0.187114168357
 CN8B   NN6  1  0.334087019303  0.187114168357
 CN8B   ON1  1  0.320723538531  0.144938011577
 CN8B  ON1C  1  0.320723538531  0.144938011577
 CN8B   ON2  1  0.326959829558  0.163176000000
 CN8B   ON3  1  0.320723538531  0.144938011577
 CN8B   ON4  1  0.326959829558  0.163176000000
 CN8B   ON5  1  0.326959829558  0.163176000000
 CN8B   ON6  1  0.326959829558  0.163176000000
 CN8B  ON6B  1  0.326959829558  0.163176000000
 CN8B   CN1  1  0.338541512893  0.132309697301
 CN8B  CN1T  1  0.338541512893  0.132309697301
 CN8B   CN2  1  0.338541512893  0.132309697301
 CN8B   CN3  1  0.338541512893  0.125520000000
 CN8B  CN3T  1  0.338541512893  0.125520000000
 CN8B   CN4  1  0.338541512893  0.114583559030
 CN8B   CN5  1  0.338541512893  0.114583559030
 CN8B  CN5G  1  0.338541512893  0.114583559030
 CN8B   CN7  1  0.338541512893  0.041840000000
 CN8B  CN7B  1  0.338541512893  0.041840000000
 CN8B   CN8  1  0.338541512893  0.041840000000
 CN8B  CN8B  1  0.338541512893  0.041840000000
 CN8B   CN9  1  0.338541512893  0.041840000000
 CN8B     P  1  0.360813980847  0.320014464673
 CN8B    P2  1  0.360813980847  0.320014464673
 CN8B    P3  1  0.360813980847  0.320014464673
 CN8B    P4  1  0.360813980847  0.320014464673
 CN8B   HOL  1  0.189271432669  0.089736802707
 CN8B  HAL1  1  0.286869387241  0.062058748940
 CN8B  HAL2  1  0.288651184677  0.070011711020
 CN8B  HAL3  1  0.288651184677  0.064818249282
 CN8B   HBL  1  0.286869387241  0.062058748940
 CN8B   HCL  1  0.189271432669  0.089736802707
 CN8B    HL  1  0.231633666716  0.089736802707
 CN8B  HEL1  1  0.280633096214  0.073666921749
 CN8B  HEL2  1  0.281523994932  0.067464972838
 CN8B    CL  1  0.347450500075  0.110698234855
 CN8B   CCL  1  0.347450500075  0.110698234855
 CN8B  CTL1  1  0.338541512893  0.041840000000
 CN8B  CTL2  1  0.338541512893  0.041840000000
 CN8B  CTL3  1  0.338541512893  0.041840000000
 CN8B  CTL5  1  0.338541512893  0.041840000000
 CN8B  CEL1  1  0.355468588538  0.109105371453
 CN8B  CEL2  1  0.354577689820  0.105847757841
 CN8B  CRL1  1  0.338541512893  0.041840000000
 CN8B  CRL2  1  0.338541512893  0.041840000000
 CN8B   OBL  1  0.293996576986  0.144938011577
 CN8B   OCL  1  0.320723538531  0.144938011577
 CN8B   O2L  1  0.320723538531  0.144938011577
 CN8B   OHL  1  0.326959829558  0.163176000000
 CN8B   OSL  1  0.316269044940  0.132309697301
 CN8B  OSLP  1  0.316269044940  0.132309697301
 CN8B  NH3L  1  0.334087019303  0.187114168357
 CN8B   NTL  1  0.334087019303  0.187114168357
 CN8B    SL  1  0.356359487256  0.286840588481
 CN8B    PL  1  0.360813980847  0.320014464673
 CN8B HCA1A  1  0.288651184677  0.088756043175
 CN8B HCA2A  1  0.288651184677  0.078275472531
 CN8B HCA3A  1  0.288651184677  0.064818249282
 CN8B CC30A  1  0.338541512893  0.041840000000
 CN8B CC31A  1  0.338541512893  0.041840000000
 CN8B CC32A  1  0.338541512893  0.041840000000
 CN8B CC33A  1  0.338541512893  0.041840000000
 CN8B CC326A  1  0.338541512893  0.041840000000
 CN8B HCA25A  1  0.285087589805  0.078275472531
 CN8B CC325A  1  0.338541512893  0.041840000000
 CN8B CC325B  1  0.338541512893  0.041840000000
 CN8B OC305A  1  0.316269044940  0.132309697301
 CN8B OC30A  1  0.316269044940  0.132309697301
 CN8B  HSIO  1  0.189271432669  0.089736802707
 CN8B  HSIA  1  0.286869387241  0.062058748940
 CN8B   HAL  1  0.286869387241  0.062058748940
 CN8B    AL  1  0.365268474438  0.337324864189
 CN8B    SI  1  0.365268474438  0.324091246411
 CN8B  SIH3  1  0.365268474438  0.324091246411
 CN8B  OSIH  1  0.326959829558  0.163176000000
 CN8B  OSIE  1  0.326959829558  0.163176000000
 CN8B  OSIA  1  0.326959829558  0.163176000000
 CN8B   OAL  1  0.326959829558  0.163176000000
 CN8B    HT  1  0.189271432669  0.089736802707
 CN8B    OT  1  0.326799467788  0.163176000000
 CN8B   DUM  1  0.169270756447  0.000000000000
 CN8B    CM  1  0.356359487256  0.138767581228
 CN8B   CPA  1  0.329632525712  0.125520000000
 CN8B   CPB  1  0.329632525712  0.125520000000
 CN8B   CPM  1  0.329632525712  0.125520000000
 CN8B   CST  1  0.308518226092  0.100764063435
 CN8B  CT1X  1  0.338541512893  0.041840000000
 CN8B  CT2X  1  0.338541512893  0.041840000000
 CN8B  CT3X  1  0.338541512893  0.041840000000
 CN8B    HB  1  0.286869387241  0.062058748940
 CN8B   NPH  1  0.334087019303  0.187114168357
 CN8B    OM  1  0.320723538531  0.144938011577
 CN8B   OST  1  0.320010819556  0.169954883425
 CN8B   POT  1  0.326403017859  0.123410269913
 CN8B   CAL  1  0.291056611216  0.144938011577
 CN8B    MG  1  0.274842254546  0.051243325419
 CN8B   CES  1  0.356359487256  0.182376331798
 CN8B    ZN  1  0.266378716724  0.209200000000
 CN8B    FE  1  0.227179173126  0.000000000000
 CN8B    HE  1  0.301123766731  0.061020452073
 CN8B    NE  1  0.305578260322  0.122698965603
 CN8B  CLAL  1  0.339272049842  0.072469005789
 CN8B    AG  1  0.300901042052  0.893457908130
 CN8B    AU  1  0.300722862308  0.962320000000
 CN8B    CU  1  0.285800308779  0.908997471504
 CN8B    NI  1  0.282949432881  0.994525446633
 CN8B    PB  1  0.328073452955  0.716185437439
 CN8B    PD  1  0.294842930769  1.037598257516
 CN8B    PT  1  0.296001099102  1.168527606863
 CN8B   CAP  1  0.346773417049  0.110698234855
 CN8B    FA  1  0.320723538531  0.144938011577
 CN8B    CN  1  0.325178032121  0.187114168357
 CN8B    NC  1  0.334087019303  0.324091246411
 CN8B   OCA  1  0.293996576986  0.144938011577
 CN8B   COA  1  0.347450500075  0.138767581228
 CN8B   CF1  1  0.338541512893  0.102486650838
 CN8B   CF2  1  0.351904993665  0.085746484010
 CN8B   CF3  1  0.374177461619  0.059170695450
 CN8B   HF1  1  0.286869387241  0.070011711020
 CN8B   HF2  1  0.285087589805  0.072469005789
 CN8B    F1  1  0.314487247504  0.153729976257
 CN8B    F2  1  0.314487247504  0.135577095411
 CN8B    F3  1  0.311814551349  0.130309939452
 CN8B    OX  1  0.320723538531  0.144938011577
 CN8B    HX  1  0.189271432669  0.089736802707
 CN8B  HPER  1  0.189271432669  0.089736802707
 CN8B  OPER  1  0.318427692534  0.188901923946
 CN8B   LIT  1  0.284864865125  0.020196198771
 CN8B   RUB  1  0.338541512893  0.162045623205
 CN8B   BAR  1  0.337650614175  0.162045623205
 CN8B   CAD  1  0.290165712498  0.144938011577
 CN8B  ON2B  1  0.326959829558  0.163176000000
 CN8B    SP  1  0.365268474438  0.280671252536
 CN8B   HNP  1  0.290272620344  0.072469005789
 CN8B  HNE1  1  0.280633096214  0.073666921749
 CN8B  HNE2  1  0.281523994932  0.067464972838
 CN8B  CN3D  1  0.338541512893  0.125520000000
 CN8B  CNE1  1  0.355468588538  0.109105371453
 CN8B  CNE2  1  0.354577689820  0.105847757841
 CN8B   CNA  1  0.346773417049  0.110698234855
 CN8B  CNA2  1  0.338541512893  0.110698234855
 CN8B   CNG  1  0.347450500075  0.138767581228
 CN8B  NN1C  1  0.334087019303  0.187114168357
 CN8B  NN2C  1  0.334087019303  0.187114168357
 CN8B  NN3I  1  0.334087019303  0.187114168357
 CN8B   NNG  1  0.334087019303  0.187114168357
 CN8B   FNA  1  0.320723538531  0.144938011577
 CN8B  ON2M  1  0.316269044940  0.132309697301
 CN8B   CN6  1  0.338541512893  0.041840000000
 CN8B  CN7E  1  0.338541512893  0.041840000000
 CN8B  CT2P  1  0.338541512893  0.041840000000
 CN8B  CTD1  1  0.338541512893  0.041840000000
 CN8B  CPD1  1  0.338541512893  0.041840000000
 CN8B  CC1A  1  0.355468588538  0.109105371453
 CN8B  CC1B  1  0.355468588538  0.109105371453
 CN8B   CC2  1  0.354577689820  0.105847757841
 CN8B   NS1  1  0.334087019303  0.187114168357
 CN8B   NS2  1  0.334087019303  0.187114168357
 CN8B   NHL  1  0.307360057758  0.187114168357
 CN8B  CTO1  1  0.338541512893  0.041840000000
 CN8B  CEL3  1  0.355468588538  0.109105371453
 CN8B  CTO2  1  0.338541512893  0.041840000000
 CN8B  HN3B  1  0.249451641079  0.089736802707
 CN8B  CN1A  1  0.347450500075  0.110698234855
 CN8B  CN3A  1  0.329632525712  0.177512086349
 CN8B  CN3B  1  0.329632525712  0.177512086349
 CN8B  CN3C  1  0.329632525712  0.177512086349
  CN9     C  1  0.347450500075  0.138767581228
  CN9    CA  1  0.346773417049  0.110698234855
  CN9    CC  1  0.347450500075  0.110698234855
  CN9    CD  1  0.347450500075  0.110698234855
  CN9   CE1  1  0.355468588538  0.109105371453
  CN9   CE2  1  0.354577689820  0.105847757841
  CN9   CP1  1  0.338541512893  0.041840000000
  CN9   CP2  1  0.338541512893  0.041840000000
  CN9   CP3  1  0.338541512893  0.041840000000
  CN9  CPH1  1  0.329632525712  0.093557084179
  CN9  CPH2  1  0.329632525712  0.093557084179
  CN9    CS  1  0.365268474438  0.138767581228
  CN9   CPT  1  0.334977918021  0.131646486622
  CN9    CY  1  0.346559601357  0.113045454929
  CN9   CAI  1  0.346559601357  0.113045454929
  CN9    CT  1  0.338541512893  0.041840000000
  CN9   CT1  1  0.338541512893  0.041840000000
  CN9   CT2  1  0.338541512893  0.041840000000
  CN9  CT2A  1  0.338541512893  0.041840000000
  CN9   CT3  1  0.338541512893  0.041840000000
  CN9    C3  1  0.371950214824  0.059170695450
  CN9     H  1  0.189271432669  0.089736802707
  CN9    HA  1  0.286869387241  0.062058748940
  CN9   HB1  1  0.286869387241  0.062058748940
  CN9   HB2  1  0.288651184677  0.070011711020
  CN9   HE1  1  0.280633096214  0.073666921749
  CN9   HE2  1  0.281523994932  0.067464972838
  CN9    HC  1  0.189271432669  0.089736802707
  CN9    HP  1  0.290272620344  0.072469005789
  CN9   HR1  1  0.249451641079  0.089736802707
  CN9   HR2  1  0.231633666716  0.089736802707
  CN9   HR3  1  0.300054688270  0.036952087465
  CN9    HS  1  0.209361198763  0.132309697301
  CN9   HA1  1  0.288651184677  0.088756043175
  CN9   HA2  1  0.288651184677  0.077149148019
  CN9   HA3  1  0.288651184677  0.064818249282
  CN9     N  1  0.334087019303  0.004184000000
  CN9   NC2  1  0.334087019303  0.187114168357
  CN9   NH1  1  0.307360057758  0.187114168357
  CN9   NH2  1  0.334087019303  0.187114168357
  CN9   NH3  1  0.334087019303  0.187114168357
  CN9    NP  1  0.334087019303  0.187114168357
  CN9   NR1  1  0.334087019303  0.187114168357
  CN9   NR2  1  0.334087019303  0.187114168357
  CN9   NR3  1  0.334087019303  0.187114168357
  CN9    NY  1  0.334087019303  0.187114168357
  CN9     O  1  0.293996576986  0.144938011577
  CN9    OB  1  0.293996576986  0.144938011577
  CN9    OC  1  0.320723538531  0.144938011577
  CN9   OH1  1  0.326959829558  0.163176000000
  CN9    OS  1  0.326959829558  0.163176000000
  CN9     S  1  0.347450500075  0.280671252536
  CN9    SM  1  0.345223253279  0.257919081884
  CN9    SS  1  0.365268474438  0.286840588481
  CN9  HGA1  1  0.288651184677  0.088756043175
  CN9  HGA2  1  0.288651184677  0.078275472531
  CN9  HGA3  1  0.288651184677  0.064818249282
  CN9  HGA4  1  0.280633096214  0.073666921749
  CN9  HGA5  1  0.281523994932  0.067464972838
  CN9  HGA6  1  0.286869387241  0.070011711020
  CN9  HGA7  1  0.285087589805  0.072469005789
  CN9 HGAAM0  1  0.283305792369  0.070011711020
  CN9 HGAAM1  1  0.283305792369  0.070011711020
  CN9 HGAAM2  1  0.281523994932  0.083680000000
  CN9  HGP1  1  0.189271432669  0.089736802707
  CN9  HGP2  1  0.189271432669  0.089736802707
  CN9  HGP3  1  0.209361198763  0.132309697301
  CN9  HGP4  1  0.189271432669  0.089736802707
  CN9  HGP5  1  0.231633666716  0.089736802707
  CN9 HGPAM1  1  0.247224394284  0.039692909190
  CN9 HGPAM2  1  0.247224394284  0.041840000000
  CN9 HGPAM3  1  0.246778944925  0.045833423612
  CN9 HGR51  1  0.290272620344  0.072469005789
  CN9 HGR52  1  0.249451641079  0.089736802707
  CN9 HGR53  1  0.231633666716  0.089736802707
  CN9 HGR61  1  0.290272620344  0.072469005789
  CN9 HGR62  1  0.267269615442  0.089736802707
  CN9 HGR63  1  0.249451641079  0.089736802707
  CN9 HGR71  1  0.290272620344  0.072469005789
  CN9 HGTIP3  1  0.189271432669  0.089736802707
  CN9 CG1T1  1  0.333196120584  0.170981810495
  CN9 CG1T2  1  0.346782326036  0.134409982486
  CN9 CG1N1  1  0.335868816739  0.177512086349
  CN9 CG2D1  1  0.355468588538  0.109105371453
  CN9 CG2D2  1  0.354577689820  0.105847757841
  CN9 CG2D1O  1  0.355468588538  0.109105371453
  CN9 CG2D2O  1  0.355468588538  0.109105371453
  CN9 CG2DC1  1  0.355468588538  0.109105371453
  CN9 CG2DC2  1  0.355468588538  0.109105371453
  CN9 CG2DC3  1  0.354577689820  0.105847757841
  CN9 CG2N1  1  0.347450500075  0.138767581228
  CN9 CG2N2  1  0.347450500075  0.138767581228
  CN9 CG2O1  1  0.347450500075  0.138767581228
  CN9 CG2O2  1  0.320723538531  0.130979917850
  CN9 CG2O3  1  0.347450500075  0.110698234855
  CN9 CG2O4  1  0.329632525712  0.102486650838
  CN9 CG2O5  1  0.347450500075  0.125520000000
  CN9 CG2O6  1  0.347450500075  0.110698234855
  CN9 CG2O7  1  0.308518226092  0.100764063435
  CN9 CG2R51  1  0.356359487256  0.093557084179
  CN9 CG2R52  1  0.365268474438  0.059170695450
  CN9 CG2R53  1  0.365268474438  0.059170695450
  CN9 CG2R57  1  0.356359487256  0.093557084179
  CN9 CG25C1  1  0.355468588538  0.109105371453
  CN9 CG25C2  1  0.355468588538  0.109105371453
  CN9 CG251O  1  0.355468588538  0.109105371453
  CN9 CG252O  1  0.355468588538  0.109105371453
  CN9 CG2R61  1  0.346773417049  0.110698234855
  CN9 CG2R62  1  0.338541512893  0.125520000000
  CN9 CG2R63  1  0.338541512893  0.132309697301
  CN9 CG2R64  1  0.356359487256  0.083680000000
  CN9 CG2R66  1  0.338541512893  0.110698234855
  CN9 CG2R67  1  0.346773417049  0.110698234855
  CN9 CG2RC0  1  0.334977918021  0.131646486622
  CN9 CG2R71  1  0.346987232741  0.108300154755
  CN9 CG2RC7  1  0.334977918021  0.131646486622
  CN9 CG301  1  0.338541512893  0.041840000000
  CN9 CG302  1  0.374177461619  0.059170695450
  CN9 CG311  1  0.338541512893  0.041840000000
  CN9 CG312  1  0.351904993665  0.085746484010
  CN9 CG314  1  0.338541512893  0.041840000000
  CN9 CG321  1  0.338541512893  0.041840000000
  CN9 CG322  1  0.338541512893  0.102486650838
  CN9 CG323  1  0.365268474438  0.138767581228
  CN9 CG324  1  0.338541512893  0.041840000000
  CN9 CG331  1  0.338541512893  0.041840000000
  CN9 CG334  1  0.338541512893  0.041840000000
  CN9 CG3C50  1  0.338541512893  0.041840000000
  CN9 CG3C51  1  0.338541512893  0.041840000000
  CN9 CG3C52  1  0.338541512893  0.041840000000
  CN9 CG3C53  1  0.338541512893  0.041840000000
  CN9 CG3C54  1  0.338541512893  0.041840000000
  CN9 CG3C31  1  0.338541512893  0.041840000000
  CN9 CG3C41  1  0.338541512893  0.041840000000
  CN9 CG3RC1  1  0.338541512893  0.041840000000
  CN9 CG3AM0  1  0.344777803920  0.110698234855
  CN9 CG3AM1  1  0.345668702638  0.116852760686
  CN9 CG3AM2  1  0.346559601357  0.118341390899
  CN9 NG1T1  1  0.328741626994  0.177512086349
  CN9 NG2D1  1  0.334087019303  0.187114168357
  CN9 NG2S0  1  0.334087019303  0.004184000000
  CN9 NG2S1  1  0.307360057758  0.187114168357
  CN9 NG2S2  1  0.334087019303  0.187114168357
  CN9 NG2S3  1  0.334087019303  0.187114168357
  CN9 NG2O1  1  0.334087019303  0.187114168357
  CN9 NG2P1  1  0.334087019303  0.187114168357
  CN9 NG2R43  1  0.334087019303  0.187114168357
  CN9 NG2R50  1  0.334087019303  0.187114168357
  CN9 NG2R51  1  0.334087019303  0.187114168357
  CN9 NG2R52  1  0.334087019303  0.187114168357
  CN9 NG2R53  1  0.334087019303  0.187114168357
  CN9 NG2R57  1  0.334087019303  0.187114168357
  CN9 NG2R60  1  0.337650614175  0.102486650838
  CN9 NG2R61  1  0.334087019303  0.187114168357
  CN9 NG2R62  1  0.352795892384  0.093557084179
  CN9 NG2R67  1  0.334087019303  0.187114168357
  CN9 NG2RC0  1  0.334087019303  0.187114168357
  CN9 NG301  1  0.347450500075  0.078275472531
  CN9 NG311  1  0.347450500075  0.088756043175
  CN9 NG321  1  0.346559601357  0.102486650838
  CN9 NG331  1  0.345668702638  0.110698234855
  CN9 NG3C51  1  0.334087019303  0.187114168357
  CN9 NG3N1  1  0.351904993665  0.102486650838
  CN9 NG3P0  1  0.334087019303  0.187114168357
  CN9 NG3P1  1  0.334087019303  0.187114168357
  CN9 NG3P2  1  0.334087019303  0.187114168357
  CN9 NG3P3  1  0.334087019303  0.187114168357
  CN9 OG2D1  1  0.293996576986  0.144938011577
  CN9 OG2D2  1  0.320723538531  0.144938011577
  CN9 OG2D3  1  0.293996576986  0.144938011577
  CN9 OG2D4  1  0.320723538531  0.144938011577
  CN9 OG2D5  1  0.320010819556  0.169954883425
  CN9 OG2N1  1  0.320723538531  0.144938011577
  CN9 OG2P1  1  0.320723538531  0.144938011577
  CN9 OG2R50  1  0.320723538531  0.144938011577
  CN9 OG3R60  1  0.316269044940  0.132309697301
  CN9 OG301  1  0.316269044940  0.132309697301
  CN9 OG302  1  0.316269044940  0.132309697301
  CN9 OG303  1  0.316269044940  0.132309697301
  CN9 OG304  1  0.316269044940  0.132309697301
  CN9 OG311  1  0.326514380198  0.183381431383
  CN9 OG312  1  0.325178032121  0.144938011577
  CN9 OG3C31  1  0.316269044940  0.132309697301
  CN9 OG3C51  1  0.316269044940  0.132309697301
  CN9 OG3C61  1  0.316269044940  0.132309697301
  CN9 OGTIP3  1  0.326799467788  0.163176000000
  CN9 SG2D1  1  0.351904993665  0.314496560236
  CN9 SG2R50  1  0.347450500075  0.280671252536
  CN9 SG311  1  0.347450500075  0.280671252536
  CN9 SG301  1  0.345223253279  0.257919081884
  CN9 SG302  1  0.365268474438  0.286840588481
  CN9 SG3O1  1  0.356359487256  0.286840588481
  CN9 SG3O2  1  0.347450500075  0.247528778125
  CN9 SG3O3  1  0.347450500075  0.247528778125
  CN9  FGA1  1  0.314487247504  0.153729976257
  CN9  FGA2  1  0.314487247504  0.135577095411
  CN9  FGA3  1  0.311814551349  0.130309939452
  CN9  FGP1  1  0.311814551349  0.130309939452
  CN9  FGR1  1  0.320723538531  0.144938011577
  CN9 CLGA1  1  0.339432411611  0.245040988571
  CN9 CLGA3  1  0.339432411611  0.232955260941
  CN9 BRGA1  1  0.344777803920  0.289876023155
  CN9 BRGA2  1  0.351904993665  0.304599797767
  CN9 BRGA3  1  0.347450500075  0.307459952514
  CN9   SOD  1  0.294954293108  0.090610410351
  CN9   CLA  1  0.371504765465  0.162045623205
  CN9   PG0  1  0.360813980847  0.320014464673
  CN9   PG1  1  0.360813980847  0.320014464673
  CN9   PG2  1  0.360813980847  0.320014464673
  CN9  ALG1  1  0.347450500075  0.337324864189
  CN9   LPH  1  0.169270756447  0.000000000000
  CN9 CLGR1  1  0.334977918021  0.200657590935
  CN9 BRGR1  1  0.345668702638  0.236682781799
  CN9  IGR1  1  0.368832069310  0.301712530731
  CN9 SG2P1  1  0.355798221064  0.332305491450
  CN9 OG2S1  1  0.318906105146  0.157831660601
  CN9 SG2P2  1  0.352314807076  0.329421919951
  CN9 SEGD1  1  0.363041227642  0.330244580395
  CN9 BG201  1  0.396449929572  0.081561175077
  CN9 CC301  1  0.338541512893  0.041840000000
  CN9 CC3062  1  0.338541512893  0.041840000000
  CN9 CC311  1  0.338541512893  0.041840000000
  CN9 CC3161  1  0.338541512893  0.041840000000
  CN9 CC3162  1  0.338541512893  0.041840000000
  CN9 CC3163  1  0.338541512893  0.041840000000
  CN9 CC321  1  0.338541512893  0.041840000000
  CN9 CC3261  1  0.338541512893  0.041840000000
  CN9 CC3263  1  0.338541512893  0.041840000000
  CN9 CC331  1  0.338541512893  0.041840000000
  CN9 CC2O1  1  0.347450500075  0.138767581228
  CN9 CC2O2  1  0.347450500075  0.110698234855
  CN9 CC2O3  1  0.347450500075  0.125520000000
  CN9 CC2O4  1  0.329632525712  0.102486650838
  CN9 CC2O5  1  0.320723538531  0.130979917850
  CN9 OC2D1  1  0.293996576986  0.144938011577
  CN9 OC2D2  1  0.320723538531  0.144938011577
  CN9 OC2D3  1  0.293996576986  0.144938011577
  CN9 OC2D4  1  0.293996576986  0.144938011577
  CN9 OC3C61  1  0.316269044940  0.132309697301
  CN9 OC311  1  0.326514380198  0.183381431383
  CN9 NC2D1  1  0.307360057758  0.187114168357
  CN9  HCP1  1  0.189271432669  0.089736802707
  CN9  HCA1  1  0.288651184677  0.088756043175
  CN9  HCA2  1  0.288651184677  0.078275472531
  CN9  HCA3  1  0.288651184677  0.064818249282
  CN9 CC312  1  0.338541512893  0.041840000000
  CN9 CC322  1  0.338541512893  0.041840000000
  CN9  HCR1  1  0.240542653898  0.089736802707
  CN9 HCA3M  1  0.288651184677  0.064818249282
  CN9 CC321C  1  0.338541512893  0.041840000000
  CN9 CC321D  1  0.338541512893  0.041840000000
  CN9 CC311C  1  0.338541512893  0.041840000000
  CN9 CC311D  1  0.338541512893  0.041840000000
  CN9 OC301  1  0.316269044940  0.132309697301
  CN9 OC302  1  0.316269044940  0.132309697301
  CN9 HCP1M  1  0.189271432669  0.089736802707
  CN9 OC311M  1  0.326514380198  0.183381431383
  CN9 OC3C5M  1  0.316269044940  0.132309697301
  CN9 CC322C  1  0.338541512893  0.041840000000
  CN9 HCA2C2  1  0.285087589805  0.078275472531
  CN9 CC312C  1  0.338541512893  0.041840000000
  CN9 HCA1C2  1  0.288651184677  0.088756043175
  CN9 OC3C51  1  0.316269044940  0.132309697301
  CN9 CC3152  1  0.338541512893  0.041840000000
  CN9 CC3051  1  0.338541512893  0.041840000000
  CN9 CC3251  1  0.338541512893  0.041840000000
  CN9 CC3151  1  0.338541512893  0.041840000000
  CN9 CC3153  1  0.338541512893  0.041840000000
  CN9 OC2DP  1  0.320723538531  0.144938011577
  CN9 OC312  1  0.326959829558  0.163176000000
  CN9 OC30P  1  0.326959829558  0.163176000000
  CN9    PC  1  0.360813980847  0.320014464673
  CN9    SC  1  0.356359487256  0.286840588481
  CN9 CC312D  1  0.338541512893  0.041840000000
  CN9 OC303  1  0.316269044940  0.132309697301
  CN9 NC311  1  0.347450500075  0.088756043175
  CN9   HN1  1  0.189271432669  0.089736802707
  CN9   HN2  1  0.189271432669  0.089736802707
  CN9   HN3  1  0.267269615442  0.089736802707
  CN9   HN4  1  0.189271432669  0.089736802707
  CN9   HN5  1  0.189271432669  0.089736802707
  CN9   HN6  1  0.286869387241  0.062058748940
  CN9   HN7  1  0.286869387241  0.062058748940
  CN9   HN8  1  0.288651184677  0.070011711020
  CN9   HN9  1  0.288651184677  0.064818249282
  CN9   NN1  1  0.334087019303  0.187114168357
  CN9   NN2  1  0.334087019303  0.187114168357
  CN9  NN2B  1  0.334087019303  0.187114168357
  CN9  NN2G  1  0.334087019303  0.187114168357
  CN9  NN2U  1  0.334087019303  0.187114168357
  CN9   NN3  1  0.334087019303  0.187114168357
  CN9  NN3A  1  0.334087019303  0.187114168357
  CN9  NN3G  1  0.334087019303  0.187114168357
  CN9   NN4  1  0.334087019303  0.187114168357
  CN9   NN6  1  0.334087019303  0.187114168357
  CN9   ON1  1  0.320723538531  0.144938011577
  CN9  ON1C  1  0.320723538531  0.144938011577
  CN9   ON2  1  0.326959829558  0.163176000000
  CN9   ON3  1  0.320723538531  0.144938011577
  CN9   ON4  1  0.326959829558  0.163176000000
  CN9   ON5  1  0.326959829558  0.163176000000
  CN9   ON6  1  0.326959829558  0.163176000000
  CN9  ON6B  1  0.326959829558  0.163176000000
  CN9   CN1  1  0.338541512893  0.132309697301
  CN9  CN1T  1  0.338541512893  0.132309697301
  CN9   CN2  1  0.338541512893  0.132309697301
  CN9   CN3  1  0.338541512893  0.125520000000
  CN9  CN3T  1  0.338541512893  0.125520000000
  CN9   CN4  1  0.338541512893  0.114583559030
  CN9   CN5  1  0.338541512893  0.114583559030
  CN9  CN5G  1  0.338541512893  0.114583559030
  CN9   CN7  1  0.338541512893  0.041840000000
  CN9  CN7B  1  0.338541512893  0.041840000000
  CN9   CN8  1  0.338541512893  0.041840000000
  CN9  CN8B  1  0.338541512893  0.041840000000
  CN9   CN9  1  0.338541512893  0.041840000000
  CN9     P  1  0.360813980847  0.320014464673
  CN9    P2  1  0.360813980847  0.320014464673
  CN9    P3  1  0.360813980847  0.320014464673
  CN9    P4  1  0.360813980847  0.320014464673
  CN9   HOL  1  0.189271432669  0.089736802707
  CN9  HAL1  1  0.286869387241  0.062058748940
  CN9  HAL2  1  0.288651184677  0.070011711020
  CN9  HAL3  1  0.288651184677  0.064818249282
  CN9   HBL  1  0.286869387241  0.062058748940
  CN9   HCL  1  0.189271432669  0.089736802707
  CN9    HL  1  0.231633666716  0.089736802707
  CN9  HEL1  1  0.280633096214  0.073666921749
  CN9  HEL2  1  0.281523994932  0.067464972838
  CN9    CL  1  0.347450500075  0.110698234855
  CN9   CCL  1  0.347450500075  0.110698234855
  CN9  CTL1  1  0.338541512893  0.041840000000
  CN9  CTL2  1  0.338541512893  0.041840000000
  CN9  CTL3  1  0.338541512893  0.041840000000
  CN9  CTL5  1  0.338541512893  0.041840000000
  CN9  CEL1  1  0.355468588538  0.109105371453
  CN9  CEL2  1  0.354577689820  0.105847757841
  CN9  CRL1  1  0.338541512893  0.041840000000
  CN9  CRL2  1  0.338541512893  0.041840000000
  CN9   OBL  1  0.293996576986  0.144938011577
  CN9   OCL  1  0.320723538531  0.144938011577
  CN9   O2L  1  0.320723538531  0.144938011577
  CN9   OHL  1  0.326959829558  0.163176000000
  CN9   OSL  1  0.316269044940  0.132309697301
  CN9  OSLP  1  0.316269044940  0.132309697301
  CN9  NH3L  1  0.334087019303  0.187114168357
  CN9   NTL  1  0.334087019303  0.187114168357
  CN9    SL  1  0.356359487256  0.286840588481
  CN9    PL  1  0.360813980847  0.320014464673
  CN9 HCA1A  1  0.288651184677  0.088756043175
  CN9 HCA2A  1  0.288651184677  0.078275472531
  CN9 HCA3A  1  0.288651184677  0.064818249282
  CN9 CC30A  1  0.338541512893  0.041840000000
  CN9 CC31A  1  0.338541512893  0.041840000000
  CN9 CC32A  1  0.338541512893  0.041840000000
  CN9 CC33A  1  0.338541512893  0.041840000000
  CN9 CC326A  1  0.338541512893  0.041840000000
  CN9 HCA25A  1  0.285087589805  0.078275472531
  CN9 CC325A  1  0.338541512893  0.041840000000
  CN9 CC325B  1  0.338541512893  0.041840000000
  CN9 OC305A  1  0.316269044940  0.132309697301
  CN9 OC30A  1  0.316269044940  0.132309697301
  CN9  HSIO  1  0.189271432669  0.089736802707
  CN9  HSIA  1  0.286869387241  0.062058748940
  CN9   HAL  1  0.286869387241  0.062058748940
  CN9    AL  1  0.365268474438  0.337324864189
  CN9    SI  1  0.365268474438  0.324091246411
  CN9  SIH3  1  0.365268474438  0.324091246411
  CN9  OSIH  1  0.326959829558  0.163176000000
  CN9  OSIE  1  0.326959829558  0.163176000000
  CN9  OSIA  1  0.326959829558  0.163176000000
  CN9   OAL  1  0.326959829558  0.163176000000
  CN9    HT  1  0.189271432669  0.089736802707
  CN9    OT  1  0.326799467788  0.163176000000
  CN9   DUM  1  0.169270756447  0.000000000000
  CN9    CM  1  0.356359487256  0.138767581228
  CN9   CPA  1  0.329632525712  0.125520000000
  CN9   CPB  1  0.329632525712  0.125520000000
  CN9   CPM  1  0.329632525712  0.125520000000
  CN9   CST  1  0.308518226092  0.100764063435
  CN9  CT1X  1  0.338541512893  0.041840000000
  CN9  CT2X  1  0.338541512893  0.041840000000
  CN9  CT3X  1  0.338541512893  0.041840000000
  CN9    HB  1  0.286869387241  0.062058748940
  CN9   NPH  1  0.334087019303  0.187114168357
  CN9    OM  1  0.320723538531  0.144938011577
  CN9   OST  1  0.320010819556  0.169954883425
  CN9   POT  1  0.326403017859  0.123410269913
  CN9   CAL  1  0.291056611216  0.144938011577
  CN9    MG  1  0.274842254546  0.051243325419
  CN9   CES  1  0.356359487256  0.182376331798
  CN9    ZN  1  0.266378716724  0.209200000000
  CN9    FE  1  0.227179173126  0.000000000000
  CN9    HE  1  0.301123766731  0.061020452073
  CN9    NE  1  0.305578260322  0.122698965603
  CN9  CLAL  1  0.339272049842  0.072469005789
  CN9    AG  1  0.300901042052  0.893457908130
  CN9    AU  1  0.300722862308  0.962320000000
  CN9    CU  1  0.285800308779  0.908997471504
  CN9    NI  1  0.282949432881  0.994525446633
  CN9    PB  1  0.328073452955  0.716185437439
  CN9    PD  1  0.294842930769  1.037598257516
  CN9    PT  1  0.296001099102  1.168527606863
  CN9   CAP  1  0.346773417049  0.110698234855
  CN9    FA  1  0.320723538531  0.144938011577
  CN9    CN  1  0.325178032121  0.187114168357
  CN9    NC  1  0.334087019303  0.324091246411
  CN9   OCA  1  0.293996576986  0.144938011577
  CN9   COA  1  0.347450500075  0.138767581228
  CN9   CF1  1  0.338541512893  0.102486650838
  CN9   CF2  1  0.351904993665  0.085746484010
  CN9   CF3  1  0.374177461619  0.059170695450
  CN9   HF1  1  0.286869387241  0.070011711020
  CN9   HF2  1  0.285087589805  0.072469005789
  CN9    F1  1  0.314487247504  0.153729976257
  CN9    F2  1  0.314487247504  0.135577095411
  CN9    F3  1  0.311814551349  0.130309939452
  CN9    OX  1  0.320723538531  0.144938011577
  CN9    HX  1  0.189271432669  0.089736802707
  CN9  HPER  1  0.189271432669  0.089736802707
  CN9  OPER  1  0.318427692534  0.188901923946
  CN9   LIT  1  0.284864865125  0.020196198771
  CN9   RUB  1  0.338541512893  0.162045623205
  CN9   BAR  1  0.337650614175  0.162045623205
  CN9   CAD  1  0.290165712498  0.144938011577
  CN9  ON2B  1  0.326959829558  0.163176000000
  CN9    SP  1  0.365268474438  0.280671252536
  CN9   HNP  1  0.290272620344  0.072469005789
  CN9  HNE1  1  0.280633096214  0.073666921749
  CN9  HNE2  1  0.281523994932  0.067464972838
  CN9  CN3D  1  0.338541512893  0.125520000000
  CN9  CNE1  1  0.355468588538  0.109105371453
  CN9  CNE2  1  0.354577689820  0.105847757841
  CN9   CNA  1  0.346773417049  0.110698234855
  CN9  CNA2  1  0.338541512893  0.110698234855
  CN9   CNG  1  0.347450500075  0.138767581228
  CN9  NN1C  1  0.334087019303  0.187114168357
  CN9  NN2C  1  0.334087019303  0.187114168357
  CN9  NN3I  1  0.334087019303  0.187114168357
  CN9   NNG  1  0.334087019303  0.187114168357
  CN9   FNA  1  0.320723538531  0.144938011577
  CN9  ON2M  1  0.316269044940  0.132309697301
  CN9   CN6  1  0.338541512893  0.041840000000
  CN9  CN7E  1  0.338541512893  0.041840000000
  CN9  CT2P  1  0.338541512893  0.041840000000
  CN9  CTD1  1  0.338541512893  0.041840000000
  CN9  CPD1  1  0.338541512893  0.041840000000
  CN9  CC1A  1  0.355468588538  0.109105371453
  CN9  CC1B  1  0.355468588538  0.109105371453
  CN9   CC2  1  0.354577689820  0.105847757841
  CN9   NS1  1  0.334087019303  0.187114168357
  CN9   NS2  1  0.334087019303  0.187114168357
  CN9   NHL  1  0.307360057758  0.187114168357
  CN9  CTO1  1  0.338541512893  0.041840000000
  CN9  CEL3  1  0.355468588538  0.109105371453
  CN9  CTO2  1  0.338541512893  0.041840000000
  CN9  HN3B  1  0.249451641079  0.089736802707
  CN9  CN1A  1  0.347450500075  0.110698234855
  CN9  CN3A  1  0.329632525712  0.177512086349
  CN9  CN3B  1  0.329632525712  0.177512086349
  CN9  CN3C  1  0.329632525712  0.177512086349
 CTL1     C  1  0.347450500075  0.138767581228
 CTL1    CA  1  0.346773417049  0.110698234855
 CTL1    CC  1  0.347450500075  0.110698234855
 CTL1    CD  1  0.347450500075  0.110698234855
 CTL1   CE1  1  0.355468588538  0.109105371453
 CTL1   CE2  1  0.354577689820  0.105847757841
 CTL1   CP1  1  0.338541512893  0.041840000000
 CTL1   CP2  1  0.338541512893  0.041840000000
 CTL1   CP3  1  0.338541512893  0.041840000000
 CTL1  CPH1  1  0.329632525712  0.093557084179
 CTL1  CPH2  1  0.329632525712  0.093557084179
 CTL1    CS  1  0.365268474438  0.138767581228
 CTL1   CPT  1  0.334977918021  0.131646486622
 CTL1    CY  1  0.346559601357  0.113045454929
 CTL1   CAI  1  0.346559601357  0.113045454929
 CTL1    CT  1  0.338541512893  0.041840000000
 CTL1   CT1  1  0.338541512893  0.041840000000
 CTL1   CT2  1  0.338541512893  0.041840000000
 CTL1  CT2A  1  0.338541512893  0.041840000000
 CTL1   CT3  1  0.338541512893  0.041840000000
 CTL1    C3  1  0.371950214824  0.059170695450
 CTL1     H  1  0.189271432669  0.089736802707
 CTL1    HA  1  0.286869387241  0.062058748940
 CTL1   HB1  1  0.286869387241  0.062058748940
 CTL1   HB2  1  0.288651184677  0.070011711020
 CTL1   HE1  1  0.280633096214  0.073666921749
 CTL1   HE2  1  0.281523994932  0.067464972838
 CTL1    HC  1  0.189271432669  0.089736802707
 CTL1    HP  1  0.290272620344  0.072469005789
 CTL1   HR1  1  0.249451641079  0.089736802707
 CTL1   HR2  1  0.231633666716  0.089736802707
 CTL1   HR3  1  0.300054688270  0.036952087465
 CTL1    HS  1  0.209361198763  0.132309697301
 CTL1   HA1  1  0.288651184677  0.088756043175
 CTL1   HA2  1  0.288651184677  0.077149148019
 CTL1   HA3  1  0.288651184677  0.064818249282
 CTL1     N  1  0.334087019303  0.004184000000
 CTL1   NC2  1  0.334087019303  0.187114168357
 CTL1   NH1  1  0.307360057758  0.187114168357
 CTL1   NH2  1  0.334087019303  0.187114168357
 CTL1   NH3  1  0.334087019303  0.187114168357
 CTL1    NP  1  0.334087019303  0.187114168357
 CTL1   NR1  1  0.334087019303  0.187114168357
 CTL1   NR2  1  0.334087019303  0.187114168357
 CTL1   NR3  1  0.334087019303  0.187114168357
 CTL1    NY  1  0.334087019303  0.187114168357
 CTL1     O  1  0.293996576986  0.144938011577
 CTL1    OB  1  0.293996576986  0.144938011577
 CTL1    OC  1  0.320723538531  0.144938011577
 CTL1   OH1  1  0.326959829558  0.163176000000
 CTL1    OS  1  0.326959829558  0.163176000000
 CTL1     S  1  0.347450500075  0.280671252536
 CTL1    SM  1  0.345223253279  0.257919081884
 CTL1    SS  1  0.365268474438  0.286840588481
 CTL1  HGA1  1  0.288651184677  0.088756043175
 CTL1  HGA2  1  0.288651184677  0.078275472531
 CTL1  HGA3  1  0.288651184677  0.064818249282
 CTL1  HGA4  1  0.280633096214  0.073666921749
 CTL1  HGA5  1  0.281523994932  0.067464972838
 CTL1  HGA6  1  0.286869387241  0.070011711020
 CTL1  HGA7  1  0.285087589805  0.072469005789
 CTL1 HGAAM0  1  0.283305792369  0.070011711020
 CTL1 HGAAM1  1  0.283305792369  0.070011711020
 CTL1 HGAAM2  1  0.281523994932  0.083680000000
 CTL1  HGP1  1  0.189271432669  0.089736802707
 CTL1  HGP2  1  0.189271432669  0.089736802707
 CTL1  HGP3  1  0.209361198763  0.132309697301
 CTL1  HGP4  1  0.189271432669  0.089736802707
 CTL1  HGP5  1  0.231633666716  0.089736802707
 CTL1 HGPAM1  1  0.247224394284  0.039692909190
 CTL1 HGPAM2  1  0.247224394284  0.041840000000
 CTL1 HGPAM3  1  0.246778944925  0.045833423612
 CTL1 HGR51  1  0.290272620344  0.072469005789
 CTL1 HGR52  1  0.249451641079  0.089736802707
 CTL1 HGR53  1  0.231633666716  0.089736802707
 CTL1 HGR61  1  0.290272620344  0.072469005789
 CTL1 HGR62  1  0.267269615442  0.089736802707
 CTL1 HGR63  1  0.249451641079  0.089736802707
 CTL1 HGR71  1  0.290272620344  0.072469005789
 CTL1 HGTIP3  1  0.189271432669  0.089736802707
 CTL1 CG1T1  1  0.333196120584  0.170981810495
 CTL1 CG1T2  1  0.346782326036  0.134409982486
 CTL1 CG1N1  1  0.335868816739  0.177512086349
 CTL1 CG2D1  1  0.355468588538  0.109105371453
 CTL1 CG2D2  1  0.354577689820  0.105847757841
 CTL1 CG2D1O  1  0.355468588538  0.109105371453
 CTL1 CG2D2O  1  0.355468588538  0.109105371453
 CTL1 CG2DC1  1  0.355468588538  0.109105371453
 CTL1 CG2DC2  1  0.355468588538  0.109105371453
 CTL1 CG2DC3  1  0.354577689820  0.105847757841
 CTL1 CG2N1  1  0.347450500075  0.138767581228
 CTL1 CG2N2  1  0.347450500075  0.138767581228
 CTL1 CG2O1  1  0.347450500075  0.138767581228
 CTL1 CG2O2  1  0.320723538531  0.130979917850
 CTL1 CG2O3  1  0.347450500075  0.110698234855
 CTL1 CG2O4  1  0.329632525712  0.102486650838
 CTL1 CG2O5  1  0.347450500075  0.125520000000
 CTL1 CG2O6  1  0.347450500075  0.110698234855
 CTL1 CG2O7  1  0.308518226092  0.100764063435
 CTL1 CG2R51  1  0.356359487256  0.093557084179
 CTL1 CG2R52  1  0.365268474438  0.059170695450
 CTL1 CG2R53  1  0.365268474438  0.059170695450
 CTL1 CG2R57  1  0.356359487256  0.093557084179
 CTL1 CG25C1  1  0.355468588538  0.109105371453
 CTL1 CG25C2  1  0.355468588538  0.109105371453
 CTL1 CG251O  1  0.355468588538  0.109105371453
 CTL1 CG252O  1  0.355468588538  0.109105371453
 CTL1 CG2R61  1  0.346773417049  0.110698234855
 CTL1 CG2R62  1  0.338541512893  0.125520000000
 CTL1 CG2R63  1  0.338541512893  0.132309697301
 CTL1 CG2R64  1  0.356359487256  0.083680000000
 CTL1 CG2R66  1  0.338541512893  0.110698234855
 CTL1 CG2R67  1  0.346773417049  0.110698234855
 CTL1 CG2RC0  1  0.334977918021  0.131646486622
 CTL1 CG2R71  1  0.346987232741  0.108300154755
 CTL1 CG2RC7  1  0.334977918021  0.131646486622
 CTL1 CG301  1  0.338541512893  0.041840000000
 CTL1 CG302  1  0.374177461619  0.059170695450
 CTL1 CG311  1  0.338541512893  0.041840000000
 CTL1 CG312  1  0.351904993665  0.085746484010
 CTL1 CG314  1  0.338541512893  0.041840000000
 CTL1 CG321  1  0.338541512893  0.041840000000
 CTL1 CG322  1  0.338541512893  0.102486650838
 CTL1 CG323  1  0.365268474438  0.138767581228
 CTL1 CG324  1  0.338541512893  0.041840000000
 CTL1 CG331  1  0.338541512893  0.041840000000
 CTL1 CG334  1  0.338541512893  0.041840000000
 CTL1 CG3C50  1  0.338541512893  0.041840000000
 CTL1 CG3C51  1  0.338541512893  0.041840000000
 CTL1 CG3C52  1  0.338541512893  0.041840000000
 CTL1 CG3C53  1  0.338541512893  0.041840000000
 CTL1 CG3C54  1  0.338541512893  0.041840000000
 CTL1 CG3C31  1  0.338541512893  0.041840000000
 CTL1 CG3C41  1  0.338541512893  0.041840000000
 CTL1 CG3RC1  1  0.338541512893  0.041840000000
 CTL1 CG3AM0  1  0.344777803920  0.110698234855
 CTL1 CG3AM1  1  0.345668702638  0.116852760686
 CTL1 CG3AM2  1  0.346559601357  0.118341390899
 CTL1 NG1T1  1  0.328741626994  0.177512086349
 CTL1 NG2D1  1  0.334087019303  0.187114168357
 CTL1 NG2S0  1  0.334087019303  0.004184000000
 CTL1 NG2S1  1  0.307360057758  0.187114168357
 CTL1 NG2S2  1  0.334087019303  0.187114168357
 CTL1 NG2S3  1  0.334087019303  0.187114168357
 CTL1 NG2O1  1  0.334087019303  0.187114168357
 CTL1 NG2P1  1  0.334087019303  0.187114168357
 CTL1 NG2R43  1  0.334087019303  0.187114168357
 CTL1 NG2R50  1  0.334087019303  0.187114168357
 CTL1 NG2R51  1  0.334087019303  0.187114168357
 CTL1 NG2R52  1  0.334087019303  0.187114168357
 CTL1 NG2R53  1  0.334087019303  0.187114168357
 CTL1 NG2R57  1  0.334087019303  0.187114168357
 CTL1 NG2R60  1  0.337650614175  0.102486650838
 CTL1 NG2R61  1  0.334087019303  0.187114168357
 CTL1 NG2R62  1  0.352795892384  0.093557084179
 CTL1 NG2R67  1  0.334087019303  0.187114168357
 CTL1 NG2RC0  1  0.334087019303  0.187114168357
 CTL1 NG301  1  0.347450500075  0.078275472531
 CTL1 NG311  1  0.347450500075  0.088756043175
 CTL1 NG321  1  0.346559601357  0.102486650838
 CTL1 NG331  1  0.345668702638  0.110698234855
 CTL1 NG3C51  1  0.334087019303  0.187114168357
 CTL1 NG3N1  1  0.351904993665  0.102486650838
 CTL1 NG3P0  1  0.334087019303  0.187114168357
 CTL1 NG3P1  1  0.334087019303  0.187114168357
 CTL1 NG3P2  1  0.334087019303  0.187114168357
 CTL1 NG3P3  1  0.334087019303  0.187114168357
 CTL1 OG2D1  1  0.293996576986  0.144938011577
 CTL1 OG2D2  1  0.320723538531  0.144938011577
 CTL1 OG2D3  1  0.293996576986  0.144938011577
 CTL1 OG2D4  1  0.320723538531  0.144938011577
 CTL1 OG2D5  1  0.320010819556  0.169954883425
 CTL1 OG2N1  1  0.320723538531  0.144938011577
 CTL1 OG2P1  1  0.320723538531  0.144938011577
 CTL1 OG2R50  1  0.320723538531  0.144938011577
 CTL1 OG3R60  1  0.316269044940  0.132309697301
 CTL1 OG301  1  0.316269044940  0.132309697301
 CTL1 OG302  1  0.316269044940  0.132309697301
 CTL1 OG303  1  0.316269044940  0.132309697301
 CTL1 OG304  1  0.316269044940  0.132309697301
 CTL1 OG311  1  0.326514380198  0.183381431383
 CTL1 OG312  1  0.325178032121  0.144938011577
 CTL1 OG3C31  1  0.316269044940  0.132309697301
 CTL1 OG3C51  1  0.316269044940  0.132309697301
 CTL1 OG3C61  1  0.316269044940  0.132309697301
 CTL1 OGTIP3  1  0.326799467788  0.163176000000
 CTL1 SG2D1  1  0.351904993665  0.314496560236
 CTL1 SG2R50  1  0.347450500075  0.280671252536
 CTL1 SG311  1  0.347450500075  0.280671252536
 CTL1 SG301  1  0.345223253279  0.257919081884
 CTL1 SG302  1  0.365268474438  0.286840588481
 CTL1 SG3O1  1  0.356359487256  0.286840588481
 CTL1 SG3O2  1  0.347450500075  0.247528778125
 CTL1 SG3O3  1  0.347450500075  0.247528778125
 CTL1  FGA1  1  0.314487247504  0.153729976257
 CTL1  FGA2  1  0.314487247504  0.135577095411
 CTL1  FGA3  1  0.311814551349  0.130309939452
 CTL1  FGP1  1  0.311814551349  0.130309939452
 CTL1  FGR1  1  0.320723538531  0.144938011577
 CTL1 CLGA1  1  0.339432411611  0.245040988571
 CTL1 CLGA3  1  0.339432411611  0.232955260941
 CTL1 BRGA1  1  0.344777803920  0.289876023155
 CTL1 BRGA2  1  0.351904993665  0.304599797767
 CTL1 BRGA3  1  0.347450500075  0.307459952514
 CTL1   SOD  1  0.294954293108  0.090610410351
 CTL1   CLA  1  0.371504765465  0.162045623205
 CTL1   PG0  1  0.360813980847  0.320014464673
 CTL1   PG1  1  0.360813980847  0.320014464673
 CTL1   PG2  1  0.360813980847  0.320014464673
 CTL1  ALG1  1  0.347450500075  0.337324864189
 CTL1   LPH  1  0.169270756447  0.000000000000
 CTL1 CLGR1  1  0.334977918021  0.200657590935
 CTL1 BRGR1  1  0.345668702638  0.236682781799
 CTL1  IGR1  1  0.368832069310  0.301712530731
 CTL1 SG2P1  1  0.355798221064  0.332305491450
 CTL1 OG2S1  1  0.318906105146  0.157831660601
 CTL1 SG2P2  1  0.352314807076  0.329421919951
 CTL1 SEGD1  1  0.363041227642  0.330244580395
 CTL1 BG201  1  0.396449929572  0.081561175077
 CTL1 CC301  1  0.338541512893  0.041840000000
 CTL1 CC3062  1  0.338541512893  0.041840000000
 CTL1 CC311  1  0.338541512893  0.041840000000
 CTL1 CC3161  1  0.338541512893  0.041840000000
 CTL1 CC3162  1  0.338541512893  0.041840000000
 CTL1 CC3163  1  0.338541512893  0.041840000000
 CTL1 CC321  1  0.338541512893  0.041840000000
 CTL1 CC3261  1  0.338541512893  0.041840000000
 CTL1 CC3263  1  0.338541512893  0.041840000000
 CTL1 CC331  1  0.338541512893  0.041840000000
 CTL1 CC2O1  1  0.347450500075  0.138767581228
 CTL1 CC2O2  1  0.347450500075  0.110698234855
 CTL1 CC2O3  1  0.347450500075  0.125520000000
 CTL1 CC2O4  1  0.329632525712  0.102486650838
 CTL1 CC2O5  1  0.320723538531  0.130979917850
 CTL1 OC2D1  1  0.293996576986  0.144938011577
 CTL1 OC2D2  1  0.320723538531  0.144938011577
 CTL1 OC2D3  1  0.293996576986  0.144938011577
 CTL1 OC2D4  1  0.293996576986  0.144938011577
 CTL1 OC3C61  1  0.316269044940  0.132309697301
 CTL1 OC311  1  0.326514380198  0.183381431383
 CTL1 NC2D1  1  0.307360057758  0.187114168357
 CTL1  HCP1  1  0.189271432669  0.089736802707
 CTL1  HCA1  1  0.288651184677  0.088756043175
 CTL1  HCA2  1  0.288651184677  0.078275472531
 CTL1  HCA3  1  0.288651184677  0.064818249282
 CTL1 CC312  1  0.338541512893  0.041840000000
 CTL1 CC322  1  0.338541512893  0.041840000000
 CTL1  HCR1  1  0.240542653898  0.089736802707
 CTL1 HCA3M  1  0.288651184677  0.064818249282
 CTL1 CC321C  1  0.338541512893  0.041840000000
 CTL1 CC321D  1  0.338541512893  0.041840000000
 CTL1 CC311C  1  0.338541512893  0.041840000000
 CTL1 CC311D  1  0.338541512893  0.041840000000
 CTL1 OC301  1  0.316269044940  0.132309697301
 CTL1 OC302  1  0.316269044940  0.132309697301
 CTL1 HCP1M  1  0.189271432669  0.089736802707
 CTL1 OC311M  1  0.326514380198  0.183381431383
 CTL1 OC3C5M  1  0.316269044940  0.132309697301
 CTL1 CC322C  1  0.338541512893  0.041840000000
 CTL1 HCA2C2  1  0.285087589805  0.078275472531
 CTL1 CC312C  1  0.338541512893  0.041840000000
 CTL1 HCA1C2  1  0.288651184677  0.088756043175
 CTL1 OC3C51  1  0.316269044940  0.132309697301
 CTL1 CC3152  1  0.338541512893  0.041840000000
 CTL1 CC3051  1  0.338541512893  0.041840000000
 CTL1 CC3251  1  0.338541512893  0.041840000000
 CTL1 CC3151  1  0.338541512893  0.041840000000
 CTL1 CC3153  1  0.338541512893  0.041840000000
 CTL1 OC2DP  1  0.320723538531  0.144938011577
 CTL1 OC312  1  0.326959829558  0.163176000000
 CTL1 OC30P  1  0.326959829558  0.163176000000
 CTL1    PC  1  0.360813980847  0.320014464673
 CTL1    SC  1  0.356359487256  0.286840588481
 CTL1 CC312D  1  0.338541512893  0.041840000000
 CTL1 OC303  1  0.316269044940  0.132309697301
 CTL1 NC311  1  0.347450500075  0.088756043175
 CTL1   HN1  1  0.189271432669  0.089736802707
 CTL1   HN2  1  0.189271432669  0.089736802707
 CTL1   HN3  1  0.267269615442  0.089736802707
 CTL1   HN4  1  0.189271432669  0.089736802707
 CTL1   HN5  1  0.189271432669  0.089736802707
 CTL1   HN6  1  0.286869387241  0.062058748940
 CTL1   HN7  1  0.286869387241  0.062058748940
 CTL1   HN8  1  0.288651184677  0.070011711020
 CTL1   HN9  1  0.288651184677  0.064818249282
 CTL1   NN1  1  0.334087019303  0.187114168357
 CTL1   NN2  1  0.334087019303  0.187114168357
 CTL1  NN2B  1  0.334087019303  0.187114168357
 CTL1  NN2G  1  0.334087019303  0.187114168357
 CTL1  NN2U  1  0.334087019303  0.187114168357
 CTL1   NN3  1  0.334087019303  0.187114168357
 CTL1  NN3A  1  0.334087019303  0.187114168357
 CTL1  NN3G  1  0.334087019303  0.187114168357
 CTL1   NN4  1  0.334087019303  0.187114168357
 CTL1   NN6  1  0.334087019303  0.187114168357
 CTL1   ON1  1  0.320723538531  0.144938011577
 CTL1  ON1C  1  0.320723538531  0.144938011577
 CTL1   ON2  1  0.326959829558  0.163176000000
 CTL1   ON3  1  0.320723538531  0.144938011577
 CTL1   ON4  1  0.326959829558  0.163176000000
 CTL1   ON5  1  0.326959829558  0.163176000000
 CTL1   ON6  1  0.326959829558  0.163176000000
 CTL1  ON6B  1  0.326959829558  0.163176000000
 CTL1   CN1  1  0.338541512893  0.132309697301
 CTL1  CN1T  1  0.338541512893  0.132309697301
 CTL1   CN2  1  0.338541512893  0.132309697301
 CTL1   CN3  1  0.338541512893  0.125520000000
 CTL1  CN3T  1  0.338541512893  0.125520000000
 CTL1   CN4  1  0.338541512893  0.114583559030
 CTL1   CN5  1  0.338541512893  0.114583559030
 CTL1  CN5G  1  0.338541512893  0.114583559030
 CTL1   CN7  1  0.338541512893  0.041840000000
 CTL1  CN7B  1  0.338541512893  0.041840000000
 CTL1   CN8  1  0.338541512893  0.041840000000
 CTL1  CN8B  1  0.338541512893  0.041840000000
 CTL1   CN9  1  0.338541512893  0.041840000000
 CTL1     P  1  0.360813980847  0.320014464673
 CTL1    P2  1  0.360813980847  0.320014464673
 CTL1    P3  1  0.360813980847  0.320014464673
 CTL1    P4  1  0.360813980847  0.320014464673
 CTL1   HOL  1  0.189271432669  0.089736802707
 CTL1  HAL1  1  0.286869387241  0.062058748940
 CTL1  HAL2  1  0.288651184677  0.070011711020
 CTL1  HAL3  1  0.288651184677  0.064818249282
 CTL1   HBL  1  0.286869387241  0.062058748940
 CTL1   HCL  1  0.189271432669  0.089736802707
 CTL1    HL  1  0.231633666716  0.089736802707
 CTL1  HEL1  1  0.280633096214  0.073666921749
 CTL1  HEL2  1  0.281523994932  0.067464972838
 CTL1    CL  1  0.347450500075  0.110698234855
 CTL1   CCL  1  0.347450500075  0.110698234855
 CTL1  CTL1  1  0.338541512893  0.041840000000
 CTL1  CTL2  1  0.338541512893  0.041840000000
 CTL1  CTL3  1  0.338541512893  0.041840000000
 CTL1  CTL5  1  0.338541512893  0.041840000000
 CTL1  CEL1  1  0.355468588538  0.109105371453
 CTL1  CEL2  1  0.354577689820  0.105847757841
 CTL1  CRL1  1  0.338541512893  0.041840000000
 CTL1  CRL2  1  0.338541512893  0.041840000000
 CTL1   OBL  1  0.293996576986  0.144938011577
 CTL1   OCL  1  0.320723538531  0.144938011577
 CTL1   O2L  1  0.320723538531  0.144938011577
 CTL1   OHL  1  0.326959829558  0.163176000000
 CTL1   OSL  1  0.316269044940  0.132309697301
 CTL1  OSLP  1  0.316269044940  0.132309697301
 CTL1  NH3L  1  0.334087019303  0.187114168357
 CTL1   NTL  1  0.334087019303  0.187114168357
 CTL1    SL  1  0.356359487256  0.286840588481
 CTL1    PL  1  0.360813980847  0.320014464673
 CTL1 HCA1A  1  0.288651184677  0.088756043175
 CTL1 HCA2A  1  0.288651184677  0.078275472531
 CTL1 HCA3A  1  0.288651184677  0.064818249282
 CTL1 CC30A  1  0.338541512893  0.041840000000
 CTL1 CC31A  1  0.338541512893  0.041840000000
 CTL1 CC32A  1  0.338541512893  0.041840000000
 CTL1 CC33A  1  0.338541512893  0.041840000000
 CTL1 CC326A  1  0.338541512893  0.041840000000
 CTL1 HCA25A  1  0.285087589805  0.078275472531
 CTL1 CC325A  1  0.338541512893  0.041840000000
 CTL1 CC325B  1  0.338541512893  0.041840000000
 CTL1 OC305A  1  0.316269044940  0.132309697301
 CTL1 OC30A  1  0.316269044940  0.132309697301
 CTL1  HSIO  1  0.189271432669  0.089736802707
 CTL1  HSIA  1  0.286869387241  0.062058748940
 CTL1   HAL  1  0.286869387241  0.062058748940
 CTL1    AL  1  0.365268474438  0.337324864189
 CTL1    SI  1  0.365268474438  0.324091246411
 CTL1  SIH3  1  0.365268474438  0.324091246411
 CTL1  OSIH  1  0.326959829558  0.163176000000
 CTL1  OSIE  1  0.326959829558  0.163176000000
 CTL1  OSIA  1  0.326959829558  0.163176000000
 CTL1   OAL  1  0.326959829558  0.163176000000
 CTL1    HT  1  0.189271432669  0.089736802707
 CTL1    OT  1  0.326799467788  0.163176000000
 CTL1   DUM  1  0.169270756447  0.000000000000
 CTL1    CM  1  0.356359487256  0.138767581228
 CTL1   CPA  1  0.329632525712  0.125520000000
 CTL1   CPB  1  0.329632525712  0.125520000000
 CTL1   CPM  1  0.329632525712  0.125520000000
 CTL1   CST  1  0.308518226092  0.100764063435
 CTL1  CT1X  1  0.338541512893  0.041840000000
 CTL1  CT2X  1  0.338541512893  0.041840000000
 CTL1  CT3X  1  0.338541512893  0.041840000000
 CTL1    HB  1  0.286869387241  0.062058748940
 CTL1   NPH  1  0.334087019303  0.187114168357
 CTL1    OM  1  0.320723538531  0.144938011577
 CTL1   OST  1  0.320010819556  0.169954883425
 CTL1   POT  1  0.326403017859  0.123410269913
 CTL1   CAL  1  0.291056611216  0.144938011577
 CTL1    MG  1  0.274842254546  0.051243325419
 CTL1   CES  1  0.356359487256  0.182376331798
 CTL1    ZN  1  0.266378716724  0.209200000000
 CTL1    FE  1  0.227179173126  0.000000000000
 CTL1    HE  1  0.301123766731  0.061020452073
 CTL1    NE  1  0.305578260322  0.122698965603
 CTL1  CLAL  1  0.339272049842  0.072469005789
 CTL1    AG  1  0.300901042052  0.893457908130
 CTL1    AU  1  0.300722862308  0.962320000000
 CTL1    CU  1  0.285800308779  0.908997471504
 CTL1    NI  1  0.282949432881  0.994525446633
 CTL1    PB  1  0.328073452955  0.716185437439
 CTL1    PD  1  0.294842930769  1.037598257516
 CTL1    PT  1  0.296001099102  1.168527606863
 CTL1   CAP  1  0.346773417049  0.110698234855
 CTL1    FA  1  0.320723538531  0.144938011577
 CTL1    CN  1  0.325178032121  0.187114168357
 CTL1    NC  1  0.334087019303  0.324091246411
 CTL1   OCA  1  0.293996576986  0.144938011577
 CTL1   COA  1  0.347450500075  0.138767581228
 CTL1   CF1  1  0.338541512893  0.102486650838
 CTL1   CF2  1  0.351904993665  0.085746484010
 CTL1   CF3  1  0.374177461619  0.059170695450
 CTL1   HF1  1  0.286869387241  0.070011711020
 CTL1   HF2  1  0.285087589805  0.072469005789
 CTL1    F1  1  0.314487247504  0.153729976257
 CTL1    F2  1  0.314487247504  0.135577095411
 CTL1    F3  1  0.311814551349  0.130309939452
 CTL1    OX  1  0.320723538531  0.144938011577
 CTL1    HX  1  0.189271432669  0.089736802707
 CTL1  HPER  1  0.189271432669  0.089736802707
 CTL1  OPER  1  0.318427692534  0.188901923946
 CTL1   LIT  1  0.284864865125  0.020196198771
 CTL1   RUB  1  0.338541512893  0.162045623205
 CTL1   BAR  1  0.337650614175  0.162045623205
 CTL1   CAD  1  0.290165712498  0.144938011577
 CTL1  ON2B  1  0.326959829558  0.163176000000
 CTL1    SP  1  0.365268474438  0.280671252536
 CTL1   HNP  1  0.290272620344  0.072469005789
 CTL1  HNE1  1  0.280633096214  0.073666921749
 CTL1  HNE2  1  0.281523994932  0.067464972838
 CTL1  CN3D  1  0.338541512893  0.125520000000
 CTL1  CNE1  1  0.355468588538  0.109105371453
 CTL1  CNE2  1  0.354577689820  0.105847757841
 CTL1   CNA  1  0.346773417049  0.110698234855
 CTL1  CNA2  1  0.338541512893  0.110698234855
 CTL1   CNG  1  0.347450500075  0.138767581228
 CTL1  NN1C  1  0.334087019303  0.187114168357
 CTL1  NN2C  1  0.334087019303  0.187114168357
 CTL1  NN3I  1  0.334087019303  0.187114168357
 CTL1   NNG  1  0.334087019303  0.187114168357
 CTL1   FNA  1  0.320723538531  0.144938011577
 CTL1  ON2M  1  0.316269044940  0.132309697301
 CTL1   CN6  1  0.338541512893  0.041840000000
 CTL1  CN7E  1  0.338541512893  0.041840000000
 CTL1  CT2P  1  0.338541512893  0.041840000000
 CTL1  CTD1  1  0.338541512893  0.041840000000
 CTL1  CPD1  1  0.338541512893  0.041840000000
 CTL1  CC1A  1  0.355468588538  0.109105371453
 CTL1  CC1B  1  0.355468588538  0.109105371453
 CTL1   CC2  1  0.354577689820  0.105847757841
 CTL1   NS1  1  0.334087019303  0.187114168357
 CTL1   NS2  1  0.334087019303  0.187114168357
 CTL1   NHL  1  0.307360057758  0.187114168357
 CTL1  CTO1  1  0.338541512893  0.041840000000
 CTL1  CEL3  1  0.355468588538  0.109105371453
 CTL1  CTO2  1  0.338541512893  0.041840000000
 CTL1  HN3B  1  0.249451641079  0.089736802707
 CTL1  CN1A  1  0.347450500075  0.110698234855
 CTL1  CN3A  1  0.329632525712  0.177512086349
 CTL1  CN3B  1  0.329632525712  0.177512086349
 CTL1  CN3C  1  0.329632525712  0.177512086349
 CTL2     C  1  0.347450500075  0.138767581228
 CTL2    CA  1  0.346773417049  0.110698234855
 CTL2    CC  1  0.347450500075  0.110698234855
 CTL2    CD  1  0.347450500075  0.110698234855
 CTL2   CE1  1  0.355468588538  0.109105371453
 CTL2   CE2  1  0.354577689820  0.105847757841
 CTL2   CP1  1  0.338541512893  0.041840000000
 CTL2   CP2  1  0.338541512893  0.041840000000
 CTL2   CP3  1  0.338541512893  0.041840000000
 CTL2  CPH1  1  0.329632525712  0.093557084179
 CTL2  CPH2  1  0.329632525712  0.093557084179
 CTL2    CS  1  0.365268474438  0.138767581228
 CTL2   CPT  1  0.334977918021  0.131646486622
 CTL2    CY  1  0.346559601357  0.113045454929
 CTL2   CAI  1  0.346559601357  0.113045454929
 CTL2    CT  1  0.338541512893  0.041840000000
 CTL2   CT1  1  0.338541512893  0.041840000000
 CTL2   CT2  1  0.338541512893  0.041840000000
 CTL2  CT2A  1  0.338541512893  0.041840000000
 CTL2   CT3  1  0.338541512893  0.041840000000
 CTL2    C3  1  0.371950214824  0.059170695450
 CTL2     H  1  0.189271432669  0.089736802707
 CTL2    HA  1  0.286869387241  0.062058748940
 CTL2   HB1  1  0.286869387241  0.062058748940
 CTL2   HB2  1  0.288651184677  0.070011711020
 CTL2   HE1  1  0.280633096214  0.073666921749
 CTL2   HE2  1  0.281523994932  0.067464972838
 CTL2    HC  1  0.189271432669  0.089736802707
 CTL2    HP  1  0.290272620344  0.072469005789
 CTL2   HR1  1  0.249451641079  0.089736802707
 CTL2   HR2  1  0.231633666716  0.089736802707
 CTL2   HR3  1  0.300054688270  0.036952087465
 CTL2    HS  1  0.209361198763  0.132309697301
 CTL2   HA1  1  0.288651184677  0.088756043175
 CTL2   HA2  1  0.288651184677  0.077149148019
 CTL2   HA3  1  0.288651184677  0.064818249282
 CTL2     N  1  0.334087019303  0.004184000000
 CTL2   NC2  1  0.334087019303  0.187114168357
 CTL2   NH1  1  0.307360057758  0.187114168357
 CTL2   NH2  1  0.334087019303  0.187114168357
 CTL2   NH3  1  0.334087019303  0.187114168357
 CTL2    NP  1  0.334087019303  0.187114168357
 CTL2   NR1  1  0.334087019303  0.187114168357
 CTL2   NR2  1  0.334087019303  0.187114168357
 CTL2   NR3  1  0.334087019303  0.187114168357
 CTL2    NY  1  0.334087019303  0.187114168357
 CTL2     O  1  0.293996576986  0.144938011577
 CTL2    OB  1  0.293996576986  0.144938011577
 CTL2    OC  1  0.320723538531  0.144938011577
 CTL2   OH1  1  0.326959829558  0.163176000000
 CTL2    OS  1  0.326959829558  0.163176000000
 CTL2     S  1  0.347450500075  0.280671252536
 CTL2    SM  1  0.345223253279  0.257919081884
 CTL2    SS  1  0.365268474438  0.286840588481
 CTL2  HGA1  1  0.288651184677  0.088756043175
 CTL2  HGA2  1  0.288651184677  0.078275472531
 CTL2  HGA3  1  0.288651184677  0.064818249282
 CTL2  HGA4  1  0.280633096214  0.073666921749
 CTL2  HGA5  1  0.281523994932  0.067464972838
 CTL2  HGA6  1  0.286869387241  0.070011711020
 CTL2  HGA7  1  0.285087589805  0.072469005789
 CTL2 HGAAM0  1  0.283305792369  0.070011711020
 CTL2 HGAAM1  1  0.283305792369  0.070011711020
 CTL2 HGAAM2  1  0.281523994932  0.083680000000
 CTL2  HGP1  1  0.189271432669  0.089736802707
 CTL2  HGP2  1  0.189271432669  0.089736802707
 CTL2  HGP3  1  0.209361198763  0.132309697301
 CTL2  HGP4  1  0.189271432669  0.089736802707
 CTL2  HGP5  1  0.231633666716  0.089736802707
 CTL2 HGPAM1  1  0.247224394284  0.039692909190
 CTL2 HGPAM2  1  0.247224394284  0.041840000000
 CTL2 HGPAM3  1  0.246778944925  0.045833423612
 CTL2 HGR51  1  0.290272620344  0.072469005789
 CTL2 HGR52  1  0.249451641079  0.089736802707
 CTL2 HGR53  1  0.231633666716  0.089736802707
 CTL2 HGR61  1  0.290272620344  0.072469005789
 CTL2 HGR62  1  0.267269615442  0.089736802707
 CTL2 HGR63  1  0.249451641079  0.089736802707
 CTL2 HGR71  1  0.290272620344  0.072469005789
 CTL2 HGTIP3  1  0.189271432669  0.089736802707
 CTL2 CG1T1  1  0.333196120584  0.170981810495
 CTL2 CG1T2  1  0.346782326036  0.134409982486
 CTL2 CG1N1  1  0.335868816739  0.177512086349
 CTL2 CG2D1  1  0.355468588538  0.109105371453
 CTL2 CG2D2  1  0.354577689820  0.105847757841
 CTL2 CG2D1O  1  0.355468588538  0.109105371453
 CTL2 CG2D2O  1  0.355468588538  0.109105371453
 CTL2 CG2DC1  1  0.355468588538  0.109105371453
 CTL2 CG2DC2  1  0.355468588538  0.109105371453
 CTL2 CG2DC3  1  0.354577689820  0.105847757841
 CTL2 CG2N1  1  0.347450500075  0.138767581228
 CTL2 CG2N2  1  0.347450500075  0.138767581228
 CTL2 CG2O1  1  0.347450500075  0.138767581228
 CTL2 CG2O2  1  0.320723538531  0.130979917850
 CTL2 CG2O3  1  0.347450500075  0.110698234855
 CTL2 CG2O4  1  0.329632525712  0.102486650838
 CTL2 CG2O5  1  0.347450500075  0.125520000000
 CTL2 CG2O6  1  0.347450500075  0.110698234855
 CTL2 CG2O7  1  0.308518226092  0.100764063435
 CTL2 CG2R51  1  0.356359487256  0.093557084179
 CTL2 CG2R52  1  0.365268474438  0.059170695450
 CTL2 CG2R53  1  0.365268474438  0.059170695450
 CTL2 CG2R57  1  0.356359487256  0.093557084179
 CTL2 CG25C1  1  0.355468588538  0.109105371453
 CTL2 CG25C2  1  0.355468588538  0.109105371453
 CTL2 CG251O  1  0.355468588538  0.109105371453
 CTL2 CG252O  1  0.355468588538  0.109105371453
 CTL2 CG2R61  1  0.346773417049  0.110698234855
 CTL2 CG2R62  1  0.338541512893  0.125520000000
 CTL2 CG2R63  1  0.338541512893  0.132309697301
 CTL2 CG2R64  1  0.356359487256  0.083680000000
 CTL2 CG2R66  1  0.338541512893  0.110698234855
 CTL2 CG2R67  1  0.346773417049  0.110698234855
 CTL2 CG2RC0  1  0.334977918021  0.131646486622
 CTL2 CG2R71  1  0.346987232741  0.108300154755
 CTL2 CG2RC7  1  0.334977918021  0.131646486622
 CTL2 CG301  1  0.338541512893  0.041840000000
 CTL2 CG302  1  0.374177461619  0.059170695450
 CTL2 CG311  1  0.338541512893  0.041840000000
 CTL2 CG312  1  0.351904993665  0.085746484010
 CTL2 CG314  1  0.338541512893  0.041840000000
 CTL2 CG321  1  0.338541512893  0.041840000000
 CTL2 CG322  1  0.338541512893  0.102486650838
 CTL2 CG323  1  0.365268474438  0.138767581228
 CTL2 CG324  1  0.338541512893  0.041840000000
 CTL2 CG331  1  0.338541512893  0.041840000000
 CTL2 CG334  1  0.338541512893  0.041840000000
 CTL2 CG3C50  1  0.338541512893  0.041840000000
 CTL2 CG3C51  1  0.338541512893  0.041840000000
 CTL2 CG3C52  1  0.338541512893  0.041840000000
 CTL2 CG3C53  1  0.338541512893  0.041840000000
 CTL2 CG3C54  1  0.338541512893  0.041840000000
 CTL2 CG3C31  1  0.338541512893  0.041840000000
 CTL2 CG3C41  1  0.338541512893  0.041840000000
 CTL2 CG3RC1  1  0.338541512893  0.041840000000
 CTL2 CG3AM0  1  0.344777803920  0.110698234855
 CTL2 CG3AM1  1  0.345668702638  0.116852760686
 CTL2 CG3AM2  1  0.346559601357  0.118341390899
 CTL2 NG1T1  1  0.328741626994  0.177512086349
 CTL2 NG2D1  1  0.334087019303  0.187114168357
 CTL2 NG2S0  1  0.334087019303  0.004184000000
 CTL2 NG2S1  1  0.307360057758  0.187114168357
 CTL2 NG2S2  1  0.334087019303  0.187114168357
 CTL2 NG2S3  1  0.334087019303  0.187114168357
 CTL2 NG2O1  1  0.334087019303  0.187114168357
 CTL2 NG2P1  1  0.334087019303  0.187114168357
 CTL2 NG2R43  1  0.334087019303  0.187114168357
 CTL2 NG2R50  1  0.334087019303  0.187114168357
 CTL2 NG2R51  1  0.334087019303  0.187114168357
 CTL2 NG2R52  1  0.334087019303  0.187114168357
 CTL2 NG2R53  1  0.334087019303  0.187114168357
 CTL2 NG2R57  1  0.334087019303  0.187114168357
 CTL2 NG2R60  1  0.337650614175  0.102486650838
 CTL2 NG2R61  1  0.334087019303  0.187114168357
 CTL2 NG2R62  1  0.352795892384  0.093557084179
 CTL2 NG2R67  1  0.334087019303  0.187114168357
 CTL2 NG2RC0  1  0.334087019303  0.187114168357
 CTL2 NG301  1  0.347450500075  0.078275472531
 CTL2 NG311  1  0.347450500075  0.088756043175
 CTL2 NG321  1  0.346559601357  0.102486650838
 CTL2 NG331  1  0.345668702638  0.110698234855
 CTL2 NG3C51  1  0.334087019303  0.187114168357
 CTL2 NG3N1  1  0.351904993665  0.102486650838
 CTL2 NG3P0  1  0.334087019303  0.187114168357
 CTL2 NG3P1  1  0.334087019303  0.187114168357
 CTL2 NG3P2  1  0.334087019303  0.187114168357
 CTL2 NG3P3  1  0.334087019303  0.187114168357
 CTL2 OG2D1  1  0.293996576986  0.144938011577
 CTL2 OG2D2  1  0.320723538531  0.144938011577
 CTL2 OG2D3  1  0.293996576986  0.144938011577
 CTL2 OG2D4  1  0.320723538531  0.144938011577
 CTL2 OG2D5  1  0.320010819556  0.169954883425
 CTL2 OG2N1  1  0.320723538531  0.144938011577
 CTL2 OG2P1  1  0.320723538531  0.144938011577
 CTL2 OG2R50  1  0.320723538531  0.144938011577
 CTL2 OG3R60  1  0.316269044940  0.132309697301
 CTL2 OG301  1  0.316269044940  0.132309697301
 CTL2 OG302  1  0.316269044940  0.132309697301
 CTL2 OG303  1  0.316269044940  0.132309697301
 CTL2 OG304  1  0.316269044940  0.132309697301
 CTL2 OG311  1  0.326514380198  0.183381431383
 CTL2 OG312  1  0.325178032121  0.144938011577
 CTL2 OG3C31  1  0.316269044940  0.132309697301
 CTL2 OG3C51  1  0.316269044940  0.132309697301
 CTL2 OG3C61  1  0.316269044940  0.132309697301
 CTL2 OGTIP3  1  0.326799467788  0.163176000000
 CTL2 SG2D1  1  0.351904993665  0.314496560236
 CTL2 SG2R50  1  0.347450500075  0.280671252536
 CTL2 SG311  1  0.347450500075  0.280671252536
 CTL2 SG301  1  0.345223253279  0.257919081884
 CTL2 SG302  1  0.365268474438  0.286840588481
 CTL2 SG3O1  1  0.356359487256  0.286840588481
 CTL2 SG3O2  1  0.347450500075  0.247528778125
 CTL2 SG3O3  1  0.347450500075  0.247528778125
 CTL2  FGA1  1  0.314487247504  0.153729976257
 CTL2  FGA2  1  0.314487247504  0.135577095411
 CTL2  FGA3  1  0.311814551349  0.130309939452
 CTL2  FGP1  1  0.311814551349  0.130309939452
 CTL2  FGR1  1  0.320723538531  0.144938011577
 CTL2 CLGA1  1  0.339432411611  0.245040988571
 CTL2 CLGA3  1  0.339432411611  0.232955260941
 CTL2 BRGA1  1  0.344777803920  0.289876023155
 CTL2 BRGA2  1  0.351904993665  0.304599797767
 CTL2 BRGA3  1  0.347450500075  0.307459952514
 CTL2   SOD  1  0.294954293108  0.090610410351
 CTL2   CLA  1  0.371504765465  0.162045623205
 CTL2   PG0  1  0.360813980847  0.320014464673
 CTL2   PG1  1  0.360813980847  0.320014464673
 CTL2   PG2  1  0.360813980847  0.320014464673
 CTL2  ALG1  1  0.347450500075  0.337324864189
 CTL2   LPH  1  0.169270756447  0.000000000000
 CTL2 CLGR1  1  0.334977918021  0.200657590935
 CTL2 BRGR1  1  0.345668702638  0.236682781799
 CTL2  IGR1  1  0.368832069310  0.301712530731
 CTL2 SG2P1  1  0.355798221064  0.332305491450
 CTL2 OG2S1  1  0.318906105146  0.157831660601
 CTL2 SG2P2  1  0.352314807076  0.329421919951
 CTL2 SEGD1  1  0.363041227642  0.330244580395
 CTL2 BG201  1  0.396449929572  0.081561175077
 CTL2 CC301  1  0.338541512893  0.041840000000
 CTL2 CC3062  1  0.338541512893  0.041840000000
 CTL2 CC311  1  0.338541512893  0.041840000000
 CTL2 CC3161  1  0.338541512893  0.041840000000
 CTL2 CC3162  1  0.338541512893  0.041840000000
 CTL2 CC3163  1  0.338541512893  0.041840000000
 CTL2 CC321  1  0.338541512893  0.041840000000
 CTL2 CC3261  1  0.338541512893  0.041840000000
 CTL2 CC3263  1  0.338541512893  0.041840000000
 CTL2 CC331  1  0.338541512893  0.041840000000
 CTL2 CC2O1  1  0.347450500075  0.138767581228
 CTL2 CC2O2  1  0.347450500075  0.110698234855
 CTL2 CC2O3  1  0.347450500075  0.125520000000
 CTL2 CC2O4  1  0.329632525712  0.102486650838
 CTL2 CC2O5  1  0.320723538531  0.130979917850
 CTL2 OC2D1  1  0.293996576986  0.144938011577
 CTL2 OC2D2  1  0.320723538531  0.144938011577
 CTL2 OC2D3  1  0.293996576986  0.144938011577
 CTL2 OC2D4  1  0.293996576986  0.144938011577
 CTL2 OC3C61  1  0.316269044940  0.132309697301
 CTL2 OC311  1  0.326514380198  0.183381431383
 CTL2 NC2D1  1  0.307360057758  0.187114168357
 CTL2  HCP1  1  0.189271432669  0.089736802707
 CTL2  HCA1  1  0.288651184677  0.088756043175
 CTL2  HCA2  1  0.288651184677  0.078275472531
 CTL2  HCA3  1  0.288651184677  0.064818249282
 CTL2 CC312  1  0.338541512893  0.041840000000
 CTL2 CC322  1  0.338541512893  0.041840000000
 CTL2  HCR1  1  0.240542653898  0.089736802707
 CTL2 HCA3M  1  0.288651184677  0.064818249282
 CTL2 CC321C  1  0.338541512893  0.041840000000
 CTL2 CC321D  1  0.338541512893  0.041840000000
 CTL2 CC311C  1  0.338541512893  0.041840000000
 CTL2 CC311D  1  0.338541512893  0.041840000000
 CTL2 OC301  1  0.316269044940  0.132309697301
 CTL2 OC302  1  0.316269044940  0.132309697301
 CTL2 HCP1M  1  0.189271432669  0.089736802707
 CTL2 OC311M  1  0.326514380198  0.183381431383
 CTL2 OC3C5M  1  0.316269044940  0.132309697301
 CTL2 CC322C  1  0.338541512893  0.041840000000
 CTL2 HCA2C2  1  0.285087589805  0.078275472531
 CTL2 CC312C  1  0.338541512893  0.041840000000
 CTL2 HCA1C2  1  0.288651184677  0.088756043175
 CTL2 OC3C51  1  0.316269044940  0.132309697301
 CTL2 CC3152  1  0.338541512893  0.041840000000
 CTL2 CC3051  1  0.338541512893  0.041840000000
 CTL2 CC3251  1  0.338541512893  0.041840000000
 CTL2 CC3151  1  0.338541512893  0.041840000000
 CTL2 CC3153  1  0.338541512893  0.041840000000
 CTL2 OC2DP  1  0.320723538531  0.144938011577
 CTL2 OC312  1  0.326959829558  0.163176000000
 CTL2 OC30P  1  0.326959829558  0.163176000000
 CTL2    PC  1  0.360813980847  0.320014464673
 CTL2    SC  1  0.356359487256  0.286840588481
 CTL2 CC312D  1  0.338541512893  0.041840000000
 CTL2 OC303  1  0.316269044940  0.132309697301
 CTL2 NC311  1  0.347450500075  0.088756043175
 CTL2   HN1  1  0.189271432669  0.089736802707
 CTL2   HN2  1  0.189271432669  0.089736802707
 CTL2   HN3  1  0.267269615442  0.089736802707
 CTL2   HN4  1  0.189271432669  0.089736802707
 CTL2   HN5  1  0.189271432669  0.089736802707
 CTL2   HN6  1  0.286869387241  0.062058748940
 CTL2   HN7  1  0.286869387241  0.062058748940
 CTL2   HN8  1  0.288651184677  0.070011711020
 CTL2   HN9  1  0.288651184677  0.064818249282
 CTL2   NN1  1  0.334087019303  0.187114168357
 CTL2   NN2  1  0.334087019303  0.187114168357
 CTL2  NN2B  1  0.334087019303  0.187114168357
 CTL2  NN2G  1  0.334087019303  0.187114168357
 CTL2  NN2U  1  0.334087019303  0.187114168357
 CTL2   NN3  1  0.334087019303  0.187114168357
 CTL2  NN3A  1  0.334087019303  0.187114168357
 CTL2  NN3G  1  0.334087019303  0.187114168357
 CTL2   NN4  1  0.334087019303  0.187114168357
 CTL2   NN6  1  0.334087019303  0.187114168357
 CTL2   ON1  1  0.320723538531  0.144938011577
 CTL2  ON1C  1  0.320723538531  0.144938011577
 CTL2   ON2  1  0.326959829558  0.163176000000
 CTL2   ON3  1  0.320723538531  0.144938011577
 CTL2   ON4  1  0.326959829558  0.163176000000
 CTL2   ON5  1  0.326959829558  0.163176000000
 CTL2   ON6  1  0.326959829558  0.163176000000
 CTL2  ON6B  1  0.326959829558  0.163176000000
 CTL2   CN1  1  0.338541512893  0.132309697301
 CTL2  CN1T  1  0.338541512893  0.132309697301
 CTL2   CN2  1  0.338541512893  0.132309697301
 CTL2   CN3  1  0.338541512893  0.125520000000
 CTL2  CN3T  1  0.338541512893  0.125520000000
 CTL2   CN4  1  0.338541512893  0.114583559030
 CTL2   CN5  1  0.338541512893  0.114583559030
 CTL2  CN5G  1  0.338541512893  0.114583559030
 CTL2   CN7  1  0.338541512893  0.041840000000
 CTL2  CN7B  1  0.338541512893  0.041840000000
 CTL2   CN8  1  0.338541512893  0.041840000000
 CTL2  CN8B  1  0.338541512893  0.041840000000
 CTL2   CN9  1  0.338541512893  0.041840000000
 CTL2     P  1  0.360813980847  0.320014464673
 CTL2    P2  1  0.360813980847  0.320014464673
 CTL2    P3  1  0.360813980847  0.320014464673
 CTL2    P4  1  0.360813980847  0.320014464673
 CTL2   HOL  1  0.189271432669  0.089736802707
 CTL2  HAL1  1  0.286869387241  0.062058748940
 CTL2  HAL2  1  0.288651184677  0.070011711020
 CTL2  HAL3  1  0.288651184677  0.064818249282
 CTL2   HBL  1  0.286869387241  0.062058748940
 CTL2   HCL  1  0.189271432669  0.089736802707
 CTL2    HL  1  0.231633666716  0.089736802707
 CTL2  HEL1  1  0.280633096214  0.073666921749
 CTL2  HEL2  1  0.281523994932  0.067464972838
 CTL2    CL  1  0.347450500075  0.110698234855
 CTL2   CCL  1  0.347450500075  0.110698234855
 CTL2  CTL1  1  0.338541512893  0.041840000000
 CTL2  CTL2  1  0.338541512893  0.041840000000
 CTL2  CTL3  1  0.338541512893  0.041840000000
 CTL2  CTL5  1  0.338541512893  0.041840000000
 CTL2  CEL1  1  0.355468588538  0.109105371453
 CTL2  CEL2  1  0.354577689820  0.105847757841
 CTL2  CRL1  1  0.338541512893  0.041840000000
 CTL2  CRL2  1  0.338541512893  0.041840000000
 CTL2   OBL  1  0.293996576986  0.144938011577
 CTL2   OCL  1  0.320723538531  0.144938011577
 CTL2   O2L  1  0.320723538531  0.144938011577
 CTL2   OHL  1  0.326959829558  0.163176000000
 CTL2   OSL  1  0.316269044940  0.132309697301
 CTL2  OSLP  1  0.316269044940  0.132309697301
 CTL2  NH3L  1  0.334087019303  0.187114168357
 CTL2   NTL  1  0.334087019303  0.187114168357
 CTL2    SL  1  0.356359487256  0.286840588481
 CTL2    PL  1  0.360813980847  0.320014464673
 CTL2 HCA1A  1  0.288651184677  0.088756043175
 CTL2 HCA2A  1  0.288651184677  0.078275472531
 CTL2 HCA3A  1  0.288651184677  0.064818249282
 CTL2 CC30A  1  0.338541512893  0.041840000000
 CTL2 CC31A  1  0.338541512893  0.041840000000
 CTL2 CC32A  1  0.338541512893  0.041840000000
 CTL2 CC33A  1  0.338541512893  0.041840000000
 CTL2 CC326A  1  0.338541512893  0.041840000000
 CTL2 HCA25A  1  0.285087589805  0.078275472531
 CTL2 CC325A  1  0.338541512893  0.041840000000
 CTL2 CC325B  1  0.338541512893  0.041840000000
 CTL2 OC305A  1  0.316269044940  0.132309697301
 CTL2 OC30A  1  0.316269044940  0.132309697301
 CTL2  HSIO  1  0.189271432669  0.089736802707
 CTL2  HSIA  1  0.286869387241  0.062058748940
 CTL2   HAL  1  0.286869387241  0.062058748940
 CTL2    AL  1  0.365268474438  0.337324864189
 CTL2    SI  1  0.365268474438  0.324091246411
 CTL2  SIH3  1  0.365268474438  0.324091246411
 CTL2  OSIH  1  0.326959829558  0.163176000000
 CTL2  OSIE  1  0.326959829558  0.163176000000
 CTL2  OSIA  1  0.326959829558  0.163176000000
 CTL2   OAL  1  0.326959829558  0.163176000000
 CTL2    HT  1  0.189271432669  0.089736802707
 CTL2    OT  1  0.326799467788  0.163176000000
 CTL2   DUM  1  0.169270756447  0.000000000000
 CTL2    CM  1  0.356359487256  0.138767581228
 CTL2   CPA  1  0.329632525712  0.125520000000
 CTL2   CPB  1  0.329632525712  0.125520000000
 CTL2   CPM  1  0.329632525712  0.125520000000
 CTL2   CST  1  0.308518226092  0.100764063435
 CTL2  CT1X  1  0.338541512893  0.041840000000
 CTL2  CT2X  1  0.338541512893  0.041840000000
 CTL2  CT3X  1  0.338541512893  0.041840000000
 CTL2    HB  1  0.286869387241  0.062058748940
 CTL2   NPH  1  0.334087019303  0.187114168357
 CTL2    OM  1  0.320723538531  0.144938011577
 CTL2   OST  1  0.320010819556  0.169954883425
 CTL2   POT  1  0.326403017859  0.123410269913
 CTL2   CAL  1  0.291056611216  0.144938011577
 CTL2    MG  1  0.274842254546  0.051243325419
 CTL2   CES  1  0.356359487256  0.182376331798
 CTL2    ZN  1  0.266378716724  0.209200000000
 CTL2    FE  1  0.227179173126  0.000000000000
 CTL2    HE  1  0.301123766731  0.061020452073
 CTL2    NE  1  0.305578260322  0.122698965603
 CTL2  CLAL  1  0.339272049842  0.072469005789
 CTL2    AG  1  0.300901042052  0.893457908130
 CTL2    AU  1  0.300722862308  0.962320000000
 CTL2    CU  1  0.285800308779  0.908997471504
 CTL2    NI  1  0.282949432881  0.994525446633
 CTL2    PB  1  0.328073452955  0.716185437439
 CTL2    PD  1  0.294842930769  1.037598257516
 CTL2    PT  1  0.296001099102  1.168527606863
 CTL2   CAP  1  0.346773417049  0.110698234855
 CTL2    FA  1  0.320723538531  0.144938011577
 CTL2    CN  1  0.325178032121  0.187114168357
 CTL2    NC  1  0.334087019303  0.324091246411
 CTL2   OCA  1  0.293996576986  0.144938011577
 CTL2   COA  1  0.347450500075  0.138767581228
 CTL2   CF1  1  0.338541512893  0.102486650838
 CTL2   CF2  1  0.351904993665  0.085746484010
 CTL2   CF3  1  0.374177461619  0.059170695450
 CTL2   HF1  1  0.286869387241  0.070011711020
 CTL2   HF2  1  0.285087589805  0.072469005789
 CTL2    F1  1  0.314487247504  0.153729976257
 CTL2    F2  1  0.314487247504  0.135577095411
 CTL2    F3  1  0.311814551349  0.130309939452
 CTL2    OX  1  0.320723538531  0.144938011577
 CTL2    HX  1  0.189271432669  0.089736802707
 CTL2  HPER  1  0.189271432669  0.089736802707
 CTL2  OPER  1  0.318427692534  0.188901923946
 CTL2   LIT  1  0.284864865125  0.020196198771
 CTL2   RUB  1  0.338541512893  0.162045623205
 CTL2   BAR  1  0.337650614175  0.162045623205
 CTL2   CAD  1  0.290165712498  0.144938011577
 CTL2  ON2B  1  0.326959829558  0.163176000000
 CTL2    SP  1  0.365268474438  0.280671252536
 CTL2   HNP  1  0.290272620344  0.072469005789
 CTL2  HNE1  1  0.280633096214  0.073666921749
 CTL2  HNE2  1  0.281523994932  0.067464972838
 CTL2  CN3D  1  0.338541512893  0.125520000000
 CTL2  CNE1  1  0.355468588538  0.109105371453
 CTL2  CNE2  1  0.354577689820  0.105847757841
 CTL2   CNA  1  0.346773417049  0.110698234855
 CTL2  CNA2  1  0.338541512893  0.110698234855
 CTL2   CNG  1  0.347450500075  0.138767581228
 CTL2  NN1C  1  0.334087019303  0.187114168357
 CTL2  NN2C  1  0.334087019303  0.187114168357
 CTL2  NN3I  1  0.334087019303  0.187114168357
 CTL2   NNG  1  0.334087019303  0.187114168357
 CTL2   FNA  1  0.320723538531  0.144938011577
 CTL2  ON2M  1  0.316269044940  0.132309697301
 CTL2   CN6  1  0.338541512893  0.041840000000
 CTL2  CN7E  1  0.338541512893  0.041840000000
 CTL2  CT2P  1  0.338541512893  0.041840000000
 CTL2  CTD1  1  0.338541512893  0.041840000000
 CTL2  CPD1  1  0.338541512893  0.041840000000
 CTL2  CC1A  1  0.355468588538  0.109105371453
 CTL2  CC1B  1  0.355468588538  0.109105371453
 CTL2   CC2  1  0.354577689820  0.105847757841
 CTL2   NS1  1  0.334087019303  0.187114168357
 CTL2   NS2  1  0.334087019303  0.187114168357
 CTL2   NHL  1  0.307360057758  0.187114168357
 CTL2  CTO1  1  0.338541512893  0.041840000000
 CTL2  CEL3  1  0.355468588538  0.109105371453
 CTL2  CTO2  1  0.338541512893  0.041840000000
 CTL2  HN3B  1  0.249451641079  0.089736802707
 CTL2  CN1A  1  0.347450500075  0.110698234855
 CTL2  CN3A  1  0.329632525712  0.177512086349
 CTL2  CN3B  1  0.329632525712  0.177512086349
 CTL2  CN3C  1  0.329632525712  0.177512086349
 CTL3     C  1  0.347450500075  0.138767581228
 CTL3    CA  1  0.346773417049  0.110698234855
 CTL3    CC  1  0.347450500075  0.110698234855
 CTL3    CD  1  0.347450500075  0.110698234855
 CTL3   CE1  1  0.355468588538  0.109105371453
 CTL3   CE2  1  0.354577689820  0.105847757841
 CTL3   CP1  1  0.338541512893  0.041840000000
 CTL3   CP2  1  0.338541512893  0.041840000000
 CTL3   CP3  1  0.338541512893  0.041840000000
 CTL3  CPH1  1  0.329632525712  0.093557084179
 CTL3  CPH2  1  0.329632525712  0.093557084179
 CTL3    CS  1  0.365268474438  0.138767581228
 CTL3   CPT  1  0.334977918021  0.131646486622
 CTL3    CY  1  0.346559601357  0.113045454929
 CTL3   CAI  1  0.346559601357  0.113045454929
 CTL3    CT  1  0.338541512893  0.041840000000
 CTL3   CT1  1  0.338541512893  0.041840000000
 CTL3   CT2  1  0.338541512893  0.041840000000
 CTL3  CT2A  1  0.338541512893  0.041840000000
 CTL3   CT3  1  0.338541512893  0.041840000000
 CTL3    C3  1  0.371950214824  0.059170695450
 CTL3     H  1  0.189271432669  0.089736802707
 CTL3    HA  1  0.286869387241  0.062058748940
 CTL3   HB1  1  0.286869387241  0.062058748940
 CTL3   HB2  1  0.288651184677  0.070011711020
 CTL3   HE1  1  0.280633096214  0.073666921749
 CTL3   HE2  1  0.281523994932  0.067464972838
 CTL3    HC  1  0.189271432669  0.089736802707
 CTL3    HP  1  0.290272620344  0.072469005789
 CTL3   HR1  1  0.249451641079  0.089736802707
 CTL3   HR2  1  0.231633666716  0.089736802707
 CTL3   HR3  1  0.300054688270  0.036952087465
 CTL3    HS  1  0.209361198763  0.132309697301
 CTL3   HA1  1  0.288651184677  0.088756043175
 CTL3   HA2  1  0.288651184677  0.077149148019
 CTL3   HA3  1  0.288651184677  0.064818249282
 CTL3     N  1  0.334087019303  0.004184000000
 CTL3   NC2  1  0.334087019303  0.187114168357
 CTL3   NH1  1  0.307360057758  0.187114168357
 CTL3   NH2  1  0.334087019303  0.187114168357
 CTL3   NH3  1  0.334087019303  0.187114168357
 CTL3    NP  1  0.334087019303  0.187114168357
 CTL3   NR1  1  0.334087019303  0.187114168357
 CTL3   NR2  1  0.334087019303  0.187114168357
 CTL3   NR3  1  0.334087019303  0.187114168357
 CTL3    NY  1  0.334087019303  0.187114168357
 CTL3     O  1  0.293996576986  0.144938011577
 CTL3    OB  1  0.293996576986  0.144938011577
 CTL3    OC  1  0.320723538531  0.144938011577
 CTL3   OH1  1  0.326959829558  0.163176000000
 CTL3    OS  1  0.326959829558  0.163176000000
 CTL3     S  1  0.347450500075  0.280671252536
 CTL3    SM  1  0.345223253279  0.257919081884
 CTL3    SS  1  0.365268474438  0.286840588481
 CTL3  HGA1  1  0.288651184677  0.088756043175
 CTL3  HGA2  1  0.288651184677  0.078275472531
 CTL3  HGA3  1  0.288651184677  0.064818249282
 CTL3  HGA4  1  0.280633096214  0.073666921749
 CTL3  HGA5  1  0.281523994932  0.067464972838
 CTL3  HGA6  1  0.286869387241  0.070011711020
 CTL3  HGA7  1  0.285087589805  0.072469005789
 CTL3 HGAAM0  1  0.283305792369  0.070011711020
 CTL3 HGAAM1  1  0.283305792369  0.070011711020
 CTL3 HGAAM2  1  0.281523994932  0.083680000000
 CTL3  HGP1  1  0.189271432669  0.089736802707
 CTL3  HGP2  1  0.189271432669  0.089736802707
 CTL3  HGP3  1  0.209361198763  0.132309697301
 CTL3  HGP4  1  0.189271432669  0.089736802707
 CTL3  HGP5  1  0.231633666716  0.089736802707
 CTL3 HGPAM1  1  0.247224394284  0.039692909190
 CTL3 HGPAM2  1  0.247224394284  0.041840000000
 CTL3 HGPAM3  1  0.246778944925  0.045833423612
 CTL3 HGR51  1  0.290272620344  0.072469005789
 CTL3 HGR52  1  0.249451641079  0.089736802707
 CTL3 HGR53  1  0.231633666716  0.089736802707
 CTL3 HGR61  1  0.290272620344  0.072469005789
 CTL3 HGR62  1  0.267269615442  0.089736802707
 CTL3 HGR63  1  0.249451641079  0.089736802707
 CTL3 HGR71  1  0.290272620344  0.072469005789
 CTL3 HGTIP3  1  0.189271432669  0.089736802707
 CTL3 CG1T1  1  0.333196120584  0.170981810495
 CTL3 CG1T2  1  0.346782326036  0.134409982486
 CTL3 CG1N1  1  0.335868816739  0.177512086349
 CTL3 CG2D1  1  0.355468588538  0.109105371453
 CTL3 CG2D2  1  0.354577689820  0.105847757841
 CTL3 CG2D1O  1  0.355468588538  0.109105371453
 CTL3 CG2D2O  1  0.355468588538  0.109105371453
 CTL3 CG2DC1  1  0.355468588538  0.109105371453
 CTL3 CG2DC2  1  0.355468588538  0.109105371453
 CTL3 CG2DC3  1  0.354577689820  0.105847757841
 CTL3 CG2N1  1  0.347450500075  0.138767581228
 CTL3 CG2N2  1  0.347450500075  0.138767581228
 CTL3 CG2O1  1  0.347450500075  0.138767581228
 CTL3 CG2O2  1  0.320723538531  0.130979917850
 CTL3 CG2O3  1  0.347450500075  0.110698234855
 CTL3 CG2O4  1  0.329632525712  0.102486650838
 CTL3 CG2O5  1  0.347450500075  0.125520000000
 CTL3 CG2O6  1  0.347450500075  0.110698234855
 CTL3 CG2O7  1  0.308518226092  0.100764063435
 CTL3 CG2R51  1  0.356359487256  0.093557084179
 CTL3 CG2R52  1  0.365268474438  0.059170695450
 CTL3 CG2R53  1  0.365268474438  0.059170695450
 CTL3 CG2R57  1  0.356359487256  0.093557084179
 CTL3 CG25C1  1  0.355468588538  0.109105371453
 CTL3 CG25C2  1  0.355468588538  0.109105371453
 CTL3 CG251O  1  0.355468588538  0.109105371453
 CTL3 CG252O  1  0.355468588538  0.109105371453
 CTL3 CG2R61  1  0.346773417049  0.110698234855
 CTL3 CG2R62  1  0.338541512893  0.125520000000
 CTL3 CG2R63  1  0.338541512893  0.132309697301
 CTL3 CG2R64  1  0.356359487256  0.083680000000
 CTL3 CG2R66  1  0.338541512893  0.110698234855
 CTL3 CG2R67  1  0.346773417049  0.110698234855
 CTL3 CG2RC0  1  0.334977918021  0.131646486622
 CTL3 CG2R71  1  0.346987232741  0.108300154755
 CTL3 CG2RC7  1  0.334977918021  0.131646486622
 CTL3 CG301  1  0.338541512893  0.041840000000
 CTL3 CG302  1  0.374177461619  0.059170695450
 CTL3 CG311  1  0.338541512893  0.041840000000
 CTL3 CG312  1  0.351904993665  0.085746484010
 CTL3 CG314  1  0.338541512893  0.041840000000
 CTL3 CG321  1  0.338541512893  0.041840000000
 CTL3 CG322  1  0.338541512893  0.102486650838
 CTL3 CG323  1  0.365268474438  0.138767581228
 CTL3 CG324  1  0.338541512893  0.041840000000
 CTL3 CG331  1  0.338541512893  0.041840000000
 CTL3 CG334  1  0.338541512893  0.041840000000
 CTL3 CG3C50  1  0.338541512893  0.041840000000
 CTL3 CG3C51  1  0.338541512893  0.041840000000
 CTL3 CG3C52  1  0.338541512893  0.041840000000
 CTL3 CG3C53  1  0.338541512893  0.041840000000
 CTL3 CG3C54  1  0.338541512893  0.041840000000
 CTL3 CG3C31  1  0.338541512893  0.041840000000
 CTL3 CG3C41  1  0.338541512893  0.041840000000
 CTL3 CG3RC1  1  0.338541512893  0.041840000000
 CTL3 CG3AM0  1  0.344777803920  0.110698234855
 CTL3 CG3AM1  1  0.345668702638  0.116852760686
 CTL3 CG3AM2  1  0.346559601357  0.118341390899
 CTL3 NG1T1  1  0.328741626994  0.177512086349
 CTL3 NG2D1  1  0.334087019303  0.187114168357
 CTL3 NG2S0  1  0.334087019303  0.004184000000
 CTL3 NG2S1  1  0.307360057758  0.187114168357
 CTL3 NG2S2  1  0.334087019303  0.187114168357
 CTL3 NG2S3  1  0.334087019303  0.187114168357
 CTL3 NG2O1  1  0.334087019303  0.187114168357
 CTL3 NG2P1  1  0.334087019303  0.187114168357
 CTL3 NG2R43  1  0.334087019303  0.187114168357
 CTL3 NG2R50  1  0.334087019303  0.187114168357
 CTL3 NG2R51  1  0.334087019303  0.187114168357
 CTL3 NG2R52  1  0.334087019303  0.187114168357
 CTL3 NG2R53  1  0.334087019303  0.187114168357
 CTL3 NG2R57  1  0.334087019303  0.187114168357
 CTL3 NG2R60  1  0.337650614175  0.102486650838
 CTL3 NG2R61  1  0.334087019303  0.187114168357
 CTL3 NG2R62  1  0.352795892384  0.093557084179
 CTL3 NG2R67  1  0.334087019303  0.187114168357
 CTL3 NG2RC0  1  0.334087019303  0.187114168357
 CTL3 NG301  1  0.347450500075  0.078275472531
 CTL3 NG311  1  0.347450500075  0.088756043175
 CTL3 NG321  1  0.346559601357  0.102486650838
 CTL3 NG331  1  0.345668702638  0.110698234855
 CTL3 NG3C51  1  0.334087019303  0.187114168357
 CTL3 NG3N1  1  0.351904993665  0.102486650838
 CTL3 NG3P0  1  0.334087019303  0.187114168357
 CTL3 NG3P1  1  0.334087019303  0.187114168357
 CTL3 NG3P2  1  0.334087019303  0.187114168357
 CTL3 NG3P3  1  0.334087019303  0.187114168357
 CTL3 OG2D1  1  0.293996576986  0.144938011577
 CTL3 OG2D2  1  0.320723538531  0.144938011577
 CTL3 OG2D3  1  0.293996576986  0.144938011577
 CTL3 OG2D4  1  0.320723538531  0.144938011577
 CTL3 OG2D5  1  0.320010819556  0.169954883425
 CTL3 OG2N1  1  0.320723538531  0.144938011577
 CTL3 OG2P1  1  0.320723538531  0.144938011577
 CTL3 OG2R50  1  0.320723538531  0.144938011577
 CTL3 OG3R60  1  0.316269044940  0.132309697301
 CTL3 OG301  1  0.316269044940  0.132309697301
 CTL3 OG302  1  0.316269044940  0.132309697301
 CTL3 OG303  1  0.316269044940  0.132309697301
 CTL3 OG304  1  0.316269044940  0.132309697301
 CTL3 OG311  1  0.326514380198  0.183381431383
 CTL3 OG312  1  0.325178032121  0.144938011577
 CTL3 OG3C31  1  0.316269044940  0.132309697301
 CTL3 OG3C51  1  0.316269044940  0.132309697301
 CTL3 OG3C61  1  0.316269044940  0.132309697301
 CTL3 OGTIP3  1  0.326799467788  0.163176000000
 CTL3 SG2D1  1  0.351904993665  0.314496560236
 CTL3 SG2R50  1  0.347450500075  0.280671252536
 CTL3 SG311  1  0.347450500075  0.280671252536
 CTL3 SG301  1  0.345223253279  0.257919081884
 CTL3 SG302  1  0.365268474438  0.286840588481
 CTL3 SG3O1  1  0.356359487256  0.286840588481
 CTL3 SG3O2  1  0.347450500075  0.247528778125
 CTL3 SG3O3  1  0.347450500075  0.247528778125
 CTL3  FGA1  1  0.314487247504  0.153729976257
 CTL3  FGA2  1  0.314487247504  0.135577095411
 CTL3  FGA3  1  0.311814551349  0.130309939452
 CTL3  FGP1  1  0.311814551349  0.130309939452
 CTL3  FGR1  1  0.320723538531  0.144938011577
 CTL3 CLGA1  1  0.339432411611  0.245040988571
 CTL3 CLGA3  1  0.339432411611  0.232955260941
 CTL3 BRGA1  1  0.344777803920  0.289876023155
 CTL3 BRGA2  1  0.351904993665  0.304599797767
 CTL3 BRGA3  1  0.347450500075  0.307459952514
 CTL3   SOD  1  0.294954293108  0.090610410351
 CTL3   CLA  1  0.371504765465  0.162045623205
 CTL3   PG0  1  0.360813980847  0.320014464673
 CTL3   PG1  1  0.360813980847  0.320014464673
 CTL3   PG2  1  0.360813980847  0.320014464673
 CTL3  ALG1  1  0.347450500075  0.337324864189
 CTL3   LPH  1  0.169270756447  0.000000000000
 CTL3 CLGR1  1  0.334977918021  0.200657590935
 CTL3 BRGR1  1  0.345668702638  0.236682781799
 CTL3  IGR1  1  0.368832069310  0.301712530731
 CTL3 SG2P1  1  0.355798221064  0.332305491450
 CTL3 OG2S1  1  0.318906105146  0.157831660601
 CTL3 SG2P2  1  0.352314807076  0.329421919951
 CTL3 SEGD1  1  0.363041227642  0.330244580395
 CTL3 BG201  1  0.396449929572  0.081561175077
 CTL3 CC301  1  0.338541512893  0.041840000000
 CTL3 CC3062  1  0.338541512893  0.041840000000
 CTL3 CC311  1  0.338541512893  0.041840000000
 CTL3 CC3161  1  0.338541512893  0.041840000000
 CTL3 CC3162  1  0.338541512893  0.041840000000
 CTL3 CC3163  1  0.338541512893  0.041840000000
 CTL3 CC321  1  0.338541512893  0.041840000000
 CTL3 CC3261  1  0.338541512893  0.041840000000
 CTL3 CC3263  1  0.338541512893  0.041840000000
 CTL3 CC331  1  0.338541512893  0.041840000000
 CTL3 CC2O1  1  0.347450500075  0.138767581228
 CTL3 CC2O2  1  0.347450500075  0.110698234855
 CTL3 CC2O3  1  0.347450500075  0.125520000000
 CTL3 CC2O4  1  0.329632525712  0.102486650838
 CTL3 CC2O5  1  0.320723538531  0.130979917850
 CTL3 OC2D1  1  0.293996576986  0.144938011577
 CTL3 OC2D2  1  0.320723538531  0.144938011577
 CTL3 OC2D3  1  0.293996576986  0.144938011577
 CTL3 OC2D4  1  0.293996576986  0.144938011577
 CTL3 OC3C61  1  0.316269044940  0.132309697301
 CTL3 OC311  1  0.326514380198  0.183381431383
 CTL3 NC2D1  1  0.307360057758  0.187114168357
 CTL3  HCP1  1  0.189271432669  0.089736802707
 CTL3  HCA1  1  0.288651184677  0.088756043175
 CTL3  HCA2  1  0.288651184677  0.078275472531
 CTL3  HCA3  1  0.288651184677  0.064818249282
 CTL3 CC312  1  0.338541512893  0.041840000000
 CTL3 CC322  1  0.338541512893  0.041840000000
 CTL3  HCR1  1  0.240542653898  0.089736802707
 CTL3 HCA3M  1  0.288651184677  0.064818249282
 CTL3 CC321C  1  0.338541512893  0.041840000000
 CTL3 CC321D  1  0.338541512893  0.041840000000
 CTL3 CC311C  1  0.338541512893  0.041840000000
 CTL3 CC311D  1  0.338541512893  0.041840000000
 CTL3 OC301  1  0.316269044940  0.132309697301
 CTL3 OC302  1  0.316269044940  0.132309697301
 CTL3 HCP1M  1  0.189271432669  0.089736802707
 CTL3 OC311M  1  0.326514380198  0.183381431383
 CTL3 OC3C5M  1  0.316269044940  0.132309697301
 CTL3 CC322C  1  0.338541512893  0.041840000000
 CTL3 HCA2C2  1  0.285087589805  0.078275472531
 CTL3 CC312C  1  0.338541512893  0.041840000000
 CTL3 HCA1C2  1  0.288651184677  0.088756043175
 CTL3 OC3C51  1  0.316269044940  0.132309697301
 CTL3 CC3152  1  0.338541512893  0.041840000000
 CTL3 CC3051  1  0.338541512893  0.041840000000
 CTL3 CC3251  1  0.338541512893  0.041840000000
 CTL3 CC3151  1  0.338541512893  0.041840000000
 CTL3 CC3153  1  0.338541512893  0.041840000000
 CTL3 OC2DP  1  0.320723538531  0.144938011577
 CTL3 OC312  1  0.326959829558  0.163176000000
 CTL3 OC30P  1  0.326959829558  0.163176000000
 CTL3    PC  1  0.360813980847  0.320014464673
 CTL3    SC  1  0.356359487256  0.286840588481
 CTL3 CC312D  1  0.338541512893  0.041840000000
 CTL3 OC303  1  0.316269044940  0.132309697301
 CTL3 NC311  1  0.347450500075  0.088756043175
 CTL3   HN1  1  0.189271432669  0.089736802707
 CTL3   HN2  1  0.189271432669  0.089736802707
 CTL3   HN3  1  0.267269615442  0.089736802707
 CTL3   HN4  1  0.189271432669  0.089736802707
 CTL3   HN5  1  0.189271432669  0.089736802707
 CTL3   HN6  1  0.286869387241  0.062058748940
 CTL3   HN7  1  0.286869387241  0.062058748940
 CTL3   HN8  1  0.288651184677  0.070011711020
 CTL3   HN9  1  0.288651184677  0.064818249282
 CTL3   NN1  1  0.334087019303  0.187114168357
 CTL3   NN2  1  0.334087019303  0.187114168357
 CTL3  NN2B  1  0.334087019303  0.187114168357
 CTL3  NN2G  1  0.334087019303  0.187114168357
 CTL3  NN2U  1  0.334087019303  0.187114168357
 CTL3   NN3  1  0.334087019303  0.187114168357
 CTL3  NN3A  1  0.334087019303  0.187114168357
 CTL3  NN3G  1  0.334087019303  0.187114168357
 CTL3   NN4  1  0.334087019303  0.187114168357
 CTL3   NN6  1  0.334087019303  0.187114168357
 CTL3   ON1  1  0.320723538531  0.144938011577
 CTL3  ON1C  1  0.320723538531  0.144938011577
 CTL3   ON2  1  0.326959829558  0.163176000000
 CTL3   ON3  1  0.320723538531  0.144938011577
 CTL3   ON4  1  0.326959829558  0.163176000000
 CTL3   ON5  1  0.326959829558  0.163176000000
 CTL3   ON6  1  0.326959829558  0.163176000000
 CTL3  ON6B  1  0.326959829558  0.163176000000
 CTL3   CN1  1  0.338541512893  0.132309697301
 CTL3  CN1T  1  0.338541512893  0.132309697301
 CTL3   CN2  1  0.338541512893  0.132309697301
 CTL3   CN3  1  0.338541512893  0.125520000000
 CTL3  CN3T  1  0.338541512893  0.125520000000
 CTL3   CN4  1  0.338541512893  0.114583559030
 CTL3   CN5  1  0.338541512893  0.114583559030
 CTL3  CN5G  1  0.338541512893  0.114583559030
 CTL3   CN7  1  0.338541512893  0.041840000000
 CTL3  CN7B  1  0.338541512893  0.041840000000
 CTL3   CN8  1  0.338541512893  0.041840000000
 CTL3  CN8B  1  0.338541512893  0.041840000000
 CTL3   CN9  1  0.338541512893  0.041840000000
 CTL3     P  1  0.360813980847  0.320014464673
 CTL3    P2  1  0.360813980847  0.320014464673
 CTL3    P3  1  0.360813980847  0.320014464673
 CTL3    P4  1  0.360813980847  0.320014464673
 CTL3   HOL  1  0.189271432669  0.089736802707
 CTL3  HAL1  1  0.286869387241  0.062058748940
 CTL3  HAL2  1  0.288651184677  0.070011711020
 CTL3  HAL3  1  0.288651184677  0.064818249282
 CTL3   HBL  1  0.286869387241  0.062058748940
 CTL3   HCL  1  0.189271432669  0.089736802707
 CTL3    HL  1  0.231633666716  0.089736802707
 CTL3  HEL1  1  0.280633096214  0.073666921749
 CTL3  HEL2  1  0.281523994932  0.067464972838
 CTL3    CL  1  0.347450500075  0.110698234855
 CTL3   CCL  1  0.347450500075  0.110698234855
 CTL3  CTL1  1  0.338541512893  0.041840000000
 CTL3  CTL2  1  0.338541512893  0.041840000000
 CTL3  CTL3  1  0.338541512893  0.041840000000
 CTL3  CTL5  1  0.338541512893  0.041840000000
 CTL3  CEL1  1  0.355468588538  0.109105371453
 CTL3  CEL2  1  0.354577689820  0.105847757841
 CTL3  CRL1  1  0.338541512893  0.041840000000
 CTL3  CRL2  1  0.338541512893  0.041840000000
 CTL3   OBL  1  0.293996576986  0.144938011577
 CTL3   OCL  1  0.320723538531  0.144938011577
 CTL3   O2L  1  0.320723538531  0.144938011577
 CTL3   OHL  1  0.326959829558  0.163176000000
 CTL3   OSL  1  0.316269044940  0.132309697301
 CTL3  OSLP  1  0.316269044940  0.132309697301
 CTL3  NH3L  1  0.334087019303  0.187114168357
 CTL3   NTL  1  0.334087019303  0.187114168357
 CTL3    SL  1  0.356359487256  0.286840588481
 CTL3    PL  1  0.360813980847  0.320014464673
 CTL3 HCA1A  1  0.288651184677  0.088756043175
 CTL3 HCA2A  1  0.288651184677  0.078275472531
 CTL3 HCA3A  1  0.288651184677  0.064818249282
 CTL3 CC30A  1  0.338541512893  0.041840000000
 CTL3 CC31A  1  0.338541512893  0.041840000000
 CTL3 CC32A  1  0.338541512893  0.041840000000
 CTL3 CC33A  1  0.338541512893  0.041840000000
 CTL3 CC326A  1  0.338541512893  0.041840000000
 CTL3 HCA25A  1  0.285087589805  0.078275472531
 CTL3 CC325A  1  0.338541512893  0.041840000000
 CTL3 CC325B  1  0.338541512893  0.041840000000
 CTL3 OC305A  1  0.316269044940  0.132309697301
 CTL3 OC30A  1  0.316269044940  0.132309697301
 CTL3  HSIO  1  0.189271432669  0.089736802707
 CTL3  HSIA  1  0.286869387241  0.062058748940
 CTL3   HAL  1  0.286869387241  0.062058748940
 CTL3    AL  1  0.365268474438  0.337324864189
 CTL3    SI  1  0.365268474438  0.324091246411
 CTL3  SIH3  1  0.365268474438  0.324091246411
 CTL3  OSIH  1  0.326959829558  0.163176000000
 CTL3  OSIE  1  0.326959829558  0.163176000000
 CTL3  OSIA  1  0.326959829558  0.163176000000
 CTL3   OAL  1  0.326959829558  0.163176000000
 CTL3    HT  1  0.189271432669  0.089736802707
 CTL3    OT  1  0.326799467788  0.163176000000
 CTL3   DUM  1  0.169270756447  0.000000000000
 CTL3    CM  1  0.356359487256  0.138767581228
 CTL3   CPA  1  0.329632525712  0.125520000000
 CTL3   CPB  1  0.329632525712  0.125520000000
 CTL3   CPM  1  0.329632525712  0.125520000000
 CTL3   CST  1  0.308518226092  0.100764063435
 CTL3  CT1X  1  0.338541512893  0.041840000000
 CTL3  CT2X  1  0.338541512893  0.041840000000
 CTL3  CT3X  1  0.338541512893  0.041840000000
 CTL3    HB  1  0.286869387241  0.062058748940
 CTL3   NPH  1  0.334087019303  0.187114168357
 CTL3    OM  1  0.320723538531  0.144938011577
 CTL3   OST  1  0.320010819556  0.169954883425
 CTL3   POT  1  0.326403017859  0.123410269913
 CTL3   CAL  1  0.291056611216  0.144938011577
 CTL3    MG  1  0.274842254546  0.051243325419
 CTL3   CES  1  0.356359487256  0.182376331798
 CTL3    ZN  1  0.266378716724  0.209200000000
 CTL3    FE  1  0.227179173126  0.000000000000
 CTL3    HE  1  0.301123766731  0.061020452073
 CTL3    NE  1  0.305578260322  0.122698965603
 CTL3  CLAL  1  0.339272049842  0.072469005789
 CTL3    AG  1  0.300901042052  0.893457908130
 CTL3    AU  1  0.300722862308  0.962320000000
 CTL3    CU  1  0.285800308779  0.908997471504
 CTL3    NI  1  0.282949432881  0.994525446633
 CTL3    PB  1  0.328073452955  0.716185437439
 CTL3    PD  1  0.294842930769  1.037598257516
 CTL3    PT  1  0.296001099102  1.168527606863
 CTL3   CAP  1  0.346773417049  0.110698234855
 CTL3    FA  1  0.320723538531  0.144938011577
 CTL3    CN  1  0.325178032121  0.187114168357
 CTL3    NC  1  0.334087019303  0.324091246411
 CTL3   OCA  1  0.293996576986  0.144938011577
 CTL3   COA  1  0.347450500075  0.138767581228
 CTL3   CF1  1  0.338541512893  0.102486650838
 CTL3   CF2  1  0.351904993665  0.085746484010
 CTL3   CF3  1  0.374177461619  0.059170695450
 CTL3   HF1  1  0.286869387241  0.070011711020
 CTL3   HF2  1  0.285087589805  0.072469005789
 CTL3    F1  1  0.314487247504  0.153729976257
 CTL3    F2  1  0.314487247504  0.135577095411
 CTL3    F3  1  0.311814551349  0.130309939452
 CTL3    OX  1  0.320723538531  0.144938011577
 CTL3    HX  1  0.189271432669  0.089736802707
 CTL3  HPER  1  0.189271432669  0.089736802707
 CTL3  OPER  1  0.318427692534  0.188901923946
 CTL3   LIT  1  0.284864865125  0.020196198771
 CTL3   RUB  1  0.338541512893  0.162045623205
 CTL3   BAR  1  0.337650614175  0.162045623205
 CTL3   CAD  1  0.290165712498  0.144938011577
 CTL3  ON2B  1  0.326959829558  0.163176000000
 CTL3    SP  1  0.365268474438  0.280671252536
 CTL3   HNP  1  0.290272620344  0.072469005789
 CTL3  HNE1  1  0.280633096214  0.073666921749
 CTL3  HNE2  1  0.281523994932  0.067464972838
 CTL3  CN3D  1  0.338541512893  0.125520000000
 CTL3  CNE1  1  0.355468588538  0.109105371453
 CTL3  CNE2  1  0.354577689820  0.105847757841
 CTL3   CNA  1  0.346773417049  0.110698234855
 CTL3  CNA2  1  0.338541512893  0.110698234855
 CTL3   CNG  1  0.347450500075  0.138767581228
 CTL3  NN1C  1  0.334087019303  0.187114168357
 CTL3  NN2C  1  0.334087019303  0.187114168357
 CTL3  NN3I  1  0.334087019303  0.187114168357
 CTL3   NNG  1  0.334087019303  0.187114168357
 CTL3   FNA  1  0.320723538531  0.144938011577
 CTL3  ON2M  1  0.316269044940  0.132309697301
 CTL3   CN6  1  0.338541512893  0.041840000000
 CTL3  CN7E  1  0.338541512893  0.041840000000
 CTL3  CT2P  1  0.338541512893  0.041840000000
 CTL3  CTD1  1  0.338541512893  0.041840000000
 CTL3  CPD1  1  0.338541512893  0.041840000000
 CTL3  CC1A  1  0.355468588538  0.109105371453
 CTL3  CC1B  1  0.355468588538  0.109105371453
 CTL3   CC2  1  0.354577689820  0.105847757841
 CTL3   NS1  1  0.334087019303  0.187114168357
 CTL3   NS2  1  0.334087019303  0.187114168357
 CTL3   NHL  1  0.307360057758  0.187114168357
 CTL3  CTO1  1  0.338541512893  0.041840000000
 CTL3  CEL3  1  0.355468588538  0.109105371453
 CTL3  CTO2  1  0.338541512893  0.041840000000
 CTL3  HN3B  1  0.249451641079  0.089736802707
 CTL3  CN1A  1  0.347450500075  0.110698234855
 CTL3  CN3A  1  0.329632525712  0.177512086349
 CTL3  CN3B  1  0.329632525712  0.177512086349
 CTL3  CN3C  1  0.329632525712  0.177512086349
 CTL5     C  1  0.347450500075  0.138767581228
 CTL5    CA  1  0.346773417049  0.110698234855
 CTL5    CC  1  0.347450500075  0.110698234855
 CTL5    CD  1  0.347450500075  0.110698234855
 CTL5   CE1  1  0.355468588538  0.109105371453
 CTL5   CE2  1  0.354577689820  0.105847757841
 CTL5   CP1  1  0.338541512893  0.041840000000
 CTL5   CP2  1  0.338541512893  0.041840000000
 CTL5   CP3  1  0.338541512893  0.041840000000
 CTL5  CPH1  1  0.329632525712  0.093557084179
 CTL5  CPH2  1  0.329632525712  0.093557084179
 CTL5    CS  1  0.365268474438  0.138767581228
 CTL5   CPT  1  0.334977918021  0.131646486622
 CTL5    CY  1  0.346559601357  0.113045454929
 CTL5   CAI  1  0.346559601357  0.113045454929
 CTL5    CT  1  0.338541512893  0.041840000000
 CTL5   CT1  1  0.338541512893  0.041840000000
 CTL5   CT2  1  0.338541512893  0.041840000000
 CTL5  CT2A  1  0.338541512893  0.041840000000
 CTL5   CT3  1  0.338541512893  0.041840000000
 CTL5    C3  1  0.371950214824  0.059170695450
 CTL5     H  1  0.189271432669  0.089736802707
 CTL5    HA  1  0.286869387241  0.062058748940
 CTL5   HB1  1  0.286869387241  0.062058748940
 CTL5   HB2  1  0.288651184677  0.070011711020
 CTL5   HE1  1  0.280633096214  0.073666921749
 CTL5   HE2  1  0.281523994932  0.067464972838
 CTL5    HC  1  0.189271432669  0.089736802707
 CTL5    HP  1  0.290272620344  0.072469005789
 CTL5   HR1  1  0.249451641079  0.089736802707
 CTL5   HR2  1  0.231633666716  0.089736802707
 CTL5   HR3  1  0.300054688270  0.036952087465
 CTL5    HS  1  0.209361198763  0.132309697301
 CTL5   HA1  1  0.288651184677  0.088756043175
 CTL5   HA2  1  0.288651184677  0.077149148019
 CTL5   HA3  1  0.288651184677  0.064818249282
 CTL5     N  1  0.334087019303  0.004184000000
 CTL5   NC2  1  0.334087019303  0.187114168357
 CTL5   NH1  1  0.307360057758  0.187114168357
 CTL5   NH2  1  0.334087019303  0.187114168357
 CTL5   NH3  1  0.334087019303  0.187114168357
 CTL5    NP  1  0.334087019303  0.187114168357
 CTL5   NR1  1  0.334087019303  0.187114168357
 CTL5   NR2  1  0.334087019303  0.187114168357
 CTL5   NR3  1  0.334087019303  0.187114168357
 CTL5    NY  1  0.334087019303  0.187114168357
 CTL5     O  1  0.293996576986  0.144938011577
 CTL5    OB  1  0.293996576986  0.144938011577
 CTL5    OC  1  0.320723538531  0.144938011577
 CTL5   OH1  1  0.326959829558  0.163176000000
 CTL5    OS  1  0.326959829558  0.163176000000
 CTL5     S  1  0.347450500075  0.280671252536
 CTL5    SM  1  0.345223253279  0.257919081884
 CTL5    SS  1  0.365268474438  0.286840588481
 CTL5  HGA1  1  0.288651184677  0.088756043175
 CTL5  HGA2  1  0.288651184677  0.078275472531
 CTL5  HGA3  1  0.288651184677  0.064818249282
 CTL5  HGA4  1  0.280633096214  0.073666921749
 CTL5  HGA5  1  0.281523994932  0.067464972838
 CTL5  HGA6  1  0.286869387241  0.070011711020
 CTL5  HGA7  1  0.285087589805  0.072469005789
 CTL5 HGAAM0  1  0.283305792369  0.070011711020
 CTL5 HGAAM1  1  0.283305792369  0.070011711020
 CTL5 HGAAM2  1  0.281523994932  0.083680000000
 CTL5  HGP1  1  0.189271432669  0.089736802707
 CTL5  HGP2  1  0.189271432669  0.089736802707
 CTL5  HGP3  1  0.209361198763  0.132309697301
 CTL5  HGP4  1  0.189271432669  0.089736802707
 CTL5  HGP5  1  0.231633666716  0.089736802707
 CTL5 HGPAM1  1  0.247224394284  0.039692909190
 CTL5 HGPAM2  1  0.247224394284  0.041840000000
 CTL5 HGPAM3  1  0.246778944925  0.045833423612
 CTL5 HGR51  1  0.290272620344  0.072469005789
 CTL5 HGR52  1  0.249451641079  0.089736802707
 CTL5 HGR53  1  0.231633666716  0.089736802707
 CTL5 HGR61  1  0.290272620344  0.072469005789
 CTL5 HGR62  1  0.267269615442  0.089736802707
 CTL5 HGR63  1  0.249451641079  0.089736802707
 CTL5 HGR71  1  0.290272620344  0.072469005789
 CTL5 HGTIP3  1  0.189271432669  0.089736802707
 CTL5 CG1T1  1  0.333196120584  0.170981810495
 CTL5 CG1T2  1  0.346782326036  0.134409982486
 CTL5 CG1N1  1  0.335868816739  0.177512086349
 CTL5 CG2D1  1  0.355468588538  0.109105371453
 CTL5 CG2D2  1  0.354577689820  0.105847757841
 CTL5 CG2D1O  1  0.355468588538  0.109105371453
 CTL5 CG2D2O  1  0.355468588538  0.109105371453
 CTL5 CG2DC1  1  0.355468588538  0.109105371453
 CTL5 CG2DC2  1  0.355468588538  0.109105371453
 CTL5 CG2DC3  1  0.354577689820  0.105847757841
 CTL5 CG2N1  1  0.347450500075  0.138767581228
 CTL5 CG2N2  1  0.347450500075  0.138767581228
 CTL5 CG2O1  1  0.347450500075  0.138767581228
 CTL5 CG2O2  1  0.320723538531  0.130979917850
 CTL5 CG2O3  1  0.347450500075  0.110698234855
 CTL5 CG2O4  1  0.329632525712  0.102486650838
 CTL5 CG2O5  1  0.347450500075  0.125520000000
 CTL5 CG2O6  1  0.347450500075  0.110698234855
 CTL5 CG2O7  1  0.308518226092  0.100764063435
 CTL5 CG2R51  1  0.356359487256  0.093557084179
 CTL5 CG2R52  1  0.365268474438  0.059170695450
 CTL5 CG2R53  1  0.365268474438  0.059170695450
 CTL5 CG2R57  1  0.356359487256  0.093557084179
 CTL5 CG25C1  1  0.355468588538  0.109105371453
 CTL5 CG25C2  1  0.355468588538  0.109105371453
 CTL5 CG251O  1  0.355468588538  0.109105371453
 CTL5 CG252O  1  0.355468588538  0.109105371453
 CTL5 CG2R61  1  0.346773417049  0.110698234855
 CTL5 CG2R62  1  0.338541512893  0.125520000000
 CTL5 CG2R63  1  0.338541512893  0.132309697301
 CTL5 CG2R64  1  0.356359487256  0.083680000000
 CTL5 CG2R66  1  0.338541512893  0.110698234855
 CTL5 CG2R67  1  0.346773417049  0.110698234855
 CTL5 CG2RC0  1  0.334977918021  0.131646486622
 CTL5 CG2R71  1  0.346987232741  0.108300154755
 CTL5 CG2RC7  1  0.334977918021  0.131646486622
 CTL5 CG301  1  0.338541512893  0.041840000000
 CTL5 CG302  1  0.374177461619  0.059170695450
 CTL5 CG311  1  0.338541512893  0.041840000000
 CTL5 CG312  1  0.351904993665  0.085746484010
 CTL5 CG314  1  0.338541512893  0.041840000000
 CTL5 CG321  1  0.338541512893  0.041840000000
 CTL5 CG322  1  0.338541512893  0.102486650838
 CTL5 CG323  1  0.365268474438  0.138767581228
 CTL5 CG324  1  0.338541512893  0.041840000000
 CTL5 CG331  1  0.338541512893  0.041840000000
 CTL5 CG334  1  0.338541512893  0.041840000000
 CTL5 CG3C50  1  0.338541512893  0.041840000000
 CTL5 CG3C51  1  0.338541512893  0.041840000000
 CTL5 CG3C52  1  0.338541512893  0.041840000000
 CTL5 CG3C53  1  0.338541512893  0.041840000000
 CTL5 CG3C54  1  0.338541512893  0.041840000000
 CTL5 CG3C31  1  0.338541512893  0.041840000000
 CTL5 CG3C41  1  0.338541512893  0.041840000000
 CTL5 CG3RC1  1  0.338541512893  0.041840000000
 CTL5 CG3AM0  1  0.344777803920  0.110698234855
 CTL5 CG3AM1  1  0.345668702638  0.116852760686
 CTL5 CG3AM2  1  0.346559601357  0.118341390899
 CTL5 NG1T1  1  0.328741626994  0.177512086349
 CTL5 NG2D1  1  0.334087019303  0.187114168357
 CTL5 NG2S0  1  0.334087019303  0.004184000000
 CTL5 NG2S1  1  0.307360057758  0.187114168357
 CTL5 NG2S2  1  0.334087019303  0.187114168357
 CTL5 NG2S3  1  0.334087019303  0.187114168357
 CTL5 NG2O1  1  0.334087019303  0.187114168357
 CTL5 NG2P1  1  0.334087019303  0.187114168357
 CTL5 NG2R43  1  0.334087019303  0.187114168357
 CTL5 NG2R50  1  0.334087019303  0.187114168357
 CTL5 NG2R51  1  0.334087019303  0.187114168357
 CTL5 NG2R52  1  0.334087019303  0.187114168357
 CTL5 NG2R53  1  0.334087019303  0.187114168357
 CTL5 NG2R57  1  0.334087019303  0.187114168357
 CTL5 NG2R60  1  0.337650614175  0.102486650838
 CTL5 NG2R61  1  0.334087019303  0.187114168357
 CTL5 NG2R62  1  0.352795892384  0.093557084179
 CTL5 NG2R67  1  0.334087019303  0.187114168357
 CTL5 NG2RC0  1  0.334087019303  0.187114168357
 CTL5 NG301  1  0.347450500075  0.078275472531
 CTL5 NG311  1  0.347450500075  0.088756043175
 CTL5 NG321  1  0.346559601357  0.102486650838
 CTL5 NG331  1  0.345668702638  0.110698234855
 CTL5 NG3C51  1  0.334087019303  0.187114168357
 CTL5 NG3N1  1  0.351904993665  0.102486650838
 CTL5 NG3P0  1  0.334087019303  0.187114168357
 CTL5 NG3P1  1  0.334087019303  0.187114168357
 CTL5 NG3P2  1  0.334087019303  0.187114168357
 CTL5 NG3P3  1  0.334087019303  0.187114168357
 CTL5 OG2D1  1  0.293996576986  0.144938011577
 CTL5 OG2D2  1  0.320723538531  0.144938011577
 CTL5 OG2D3  1  0.293996576986  0.144938011577
 CTL5 OG2D4  1  0.320723538531  0.144938011577
 CTL5 OG2D5  1  0.320010819556  0.169954883425
 CTL5 OG2N1  1  0.320723538531  0.144938011577
 CTL5 OG2P1  1  0.320723538531  0.144938011577
 CTL5 OG2R50  1  0.320723538531  0.144938011577
 CTL5 OG3R60  1  0.316269044940  0.132309697301
 CTL5 OG301  1  0.316269044940  0.132309697301
 CTL5 OG302  1  0.316269044940  0.132309697301
 CTL5 OG303  1  0.316269044940  0.132309697301
 CTL5 OG304  1  0.316269044940  0.132309697301
 CTL5 OG311  1  0.326514380198  0.183381431383
 CTL5 OG312  1  0.325178032121  0.144938011577
 CTL5 OG3C31  1  0.316269044940  0.132309697301
 CTL5 OG3C51  1  0.316269044940  0.132309697301
 CTL5 OG3C61  1  0.316269044940  0.132309697301
 CTL5 OGTIP3  1  0.326799467788  0.163176000000
 CTL5 SG2D1  1  0.351904993665  0.314496560236
 CTL5 SG2R50  1  0.347450500075  0.280671252536
 CTL5 SG311  1  0.347450500075  0.280671252536
 CTL5 SG301  1  0.345223253279  0.257919081884
 CTL5 SG302  1  0.365268474438  0.286840588481
 CTL5 SG3O1  1  0.356359487256  0.286840588481
 CTL5 SG3O2  1  0.347450500075  0.247528778125
 CTL5 SG3O3  1  0.347450500075  0.247528778125
 CTL5  FGA1  1  0.314487247504  0.153729976257
 CTL5  FGA2  1  0.314487247504  0.135577095411
 CTL5  FGA3  1  0.311814551349  0.130309939452
 CTL5  FGP1  1  0.311814551349  0.130309939452
 CTL5  FGR1  1  0.320723538531  0.144938011577
 CTL5 CLGA1  1  0.339432411611  0.245040988571
 CTL5 CLGA3  1  0.339432411611  0.232955260941
 CTL5 BRGA1  1  0.344777803920  0.289876023155
 CTL5 BRGA2  1  0.351904993665  0.304599797767
 CTL5 BRGA3  1  0.347450500075  0.307459952514
 CTL5   SOD  1  0.294954293108  0.090610410351
 CTL5   CLA  1  0.371504765465  0.162045623205
 CTL5   PG0  1  0.360813980847  0.320014464673
 CTL5   PG1  1  0.360813980847  0.320014464673
 CTL5   PG2  1  0.360813980847  0.320014464673
 CTL5  ALG1  1  0.347450500075  0.337324864189
 CTL5   LPH  1  0.169270756447  0.000000000000
 CTL5 CLGR1  1  0.334977918021  0.200657590935
 CTL5 BRGR1  1  0.345668702638  0.236682781799
 CTL5  IGR1  1  0.368832069310  0.301712530731
 CTL5 SG2P1  1  0.355798221064  0.332305491450
 CTL5 OG2S1  1  0.318906105146  0.157831660601
 CTL5 SG2P2  1  0.352314807076  0.329421919951
 CTL5 SEGD1  1  0.363041227642  0.330244580395
 CTL5 BG201  1  0.396449929572  0.081561175077
 CTL5 CC301  1  0.338541512893  0.041840000000
 CTL5 CC3062  1  0.338541512893  0.041840000000
 CTL5 CC311  1  0.338541512893  0.041840000000
 CTL5 CC3161  1  0.338541512893  0.041840000000
 CTL5 CC3162  1  0.338541512893  0.041840000000
 CTL5 CC3163  1  0.338541512893  0.041840000000
 CTL5 CC321  1  0.338541512893  0.041840000000
 CTL5 CC3261  1  0.338541512893  0.041840000000
 CTL5 CC3263  1  0.338541512893  0.041840000000
 CTL5 CC331  1  0.338541512893  0.041840000000
 CTL5 CC2O1  1  0.347450500075  0.138767581228
 CTL5 CC2O2  1  0.347450500075  0.110698234855
 CTL5 CC2O3  1  0.347450500075  0.125520000000
 CTL5 CC2O4  1  0.329632525712  0.102486650838
 CTL5 CC2O5  1  0.320723538531  0.130979917850
 CTL5 OC2D1  1  0.293996576986  0.144938011577
 CTL5 OC2D2  1  0.320723538531  0.144938011577
 CTL5 OC2D3  1  0.293996576986  0.144938011577
 CTL5 OC2D4  1  0.293996576986  0.144938011577
 CTL5 OC3C61  1  0.316269044940  0.132309697301
 CTL5 OC311  1  0.326514380198  0.183381431383
 CTL5 NC2D1  1  0.307360057758  0.187114168357
 CTL5  HCP1  1  0.189271432669  0.089736802707
 CTL5  HCA1  1  0.288651184677  0.088756043175
 CTL5  HCA2  1  0.288651184677  0.078275472531
 CTL5  HCA3  1  0.288651184677  0.064818249282
 CTL5 CC312  1  0.338541512893  0.041840000000
 CTL5 CC322  1  0.338541512893  0.041840000000
 CTL5  HCR1  1  0.240542653898  0.089736802707
 CTL5 HCA3M  1  0.288651184677  0.064818249282
 CTL5 CC321C  1  0.338541512893  0.041840000000
 CTL5 CC321D  1  0.338541512893  0.041840000000
 CTL5 CC311C  1  0.338541512893  0.041840000000
 CTL5 CC311D  1  0.338541512893  0.041840000000
 CTL5 OC301  1  0.316269044940  0.132309697301
 CTL5 OC302  1  0.316269044940  0.132309697301
 CTL5 HCP1M  1  0.189271432669  0.089736802707
 CTL5 OC311M  1  0.326514380198  0.183381431383
 CTL5 OC3C5M  1  0.316269044940  0.132309697301
 CTL5 CC322C  1  0.338541512893  0.041840000000
 CTL5 HCA2C2  1  0.285087589805  0.078275472531
 CTL5 CC312C  1  0.338541512893  0.041840000000
 CTL5 HCA1C2  1  0.288651184677  0.088756043175
 CTL5 OC3C51  1  0.316269044940  0.132309697301
 CTL5 CC3152  1  0.338541512893  0.041840000000
 CTL5 CC3051  1  0.338541512893  0.041840000000
 CTL5 CC3251  1  0.338541512893  0.041840000000
 CTL5 CC3151  1  0.338541512893  0.041840000000
 CTL5 CC3153  1  0.338541512893  0.041840000000
 CTL5 OC2DP  1  0.320723538531  0.144938011577
 CTL5 OC312  1  0.326959829558  0.163176000000
 CTL5 OC30P  1  0.326959829558  0.163176000000
 CTL5    PC  1  0.360813980847  0.320014464673
 CTL5    SC  1  0.356359487256  0.286840588481
 CTL5 CC312D  1  0.338541512893  0.041840000000
 CTL5 OC303  1  0.316269044940  0.132309697301
 CTL5 NC311  1  0.347450500075  0.088756043175
 CTL5   HN1  1  0.189271432669  0.089736802707
 CTL5   HN2  1  0.189271432669  0.089736802707
 CTL5   HN3  1  0.267269615442  0.089736802707
 CTL5   HN4  1  0.189271432669  0.089736802707
 CTL5   HN5  1  0.189271432669  0.089736802707
 CTL5   HN6  1  0.286869387241  0.062058748940
 CTL5   HN7  1  0.286869387241  0.062058748940
 CTL5   HN8  1  0.288651184677  0.070011711020
 CTL5   HN9  1  0.288651184677  0.064818249282
 CTL5   NN1  1  0.334087019303  0.187114168357
 CTL5   NN2  1  0.334087019303  0.187114168357
 CTL5  NN2B  1  0.334087019303  0.187114168357
 CTL5  NN2G  1  0.334087019303  0.187114168357
 CTL5  NN2U  1  0.334087019303  0.187114168357
 CTL5   NN3  1  0.334087019303  0.187114168357
 CTL5  NN3A  1  0.334087019303  0.187114168357
 CTL5  NN3G  1  0.334087019303  0.187114168357
 CTL5   NN4  1  0.334087019303  0.187114168357
 CTL5   NN6  1  0.334087019303  0.187114168357
 CTL5   ON1  1  0.320723538531  0.144938011577
 CTL5  ON1C  1  0.320723538531  0.144938011577
 CTL5   ON2  1  0.326959829558  0.163176000000
 CTL5   ON3  1  0.320723538531  0.144938011577
 CTL5   ON4  1  0.326959829558  0.163176000000
 CTL5   ON5  1  0.326959829558  0.163176000000
 CTL5   ON6  1  0.326959829558  0.163176000000
 CTL5  ON6B  1  0.326959829558  0.163176000000
 CTL5   CN1  1  0.338541512893  0.132309697301
 CTL5  CN1T  1  0.338541512893  0.132309697301
 CTL5   CN2  1  0.338541512893  0.132309697301
 CTL5   CN3  1  0.338541512893  0.125520000000
 CTL5  CN3T  1  0.338541512893  0.125520000000
 CTL5   CN4  1  0.338541512893  0.114583559030
 CTL5   CN5  1  0.338541512893  0.114583559030
 CTL5  CN5G  1  0.338541512893  0.114583559030
 CTL5   CN7  1  0.338541512893  0.041840000000
 CTL5  CN7B  1  0.338541512893  0.041840000000
 CTL5   CN8  1  0.338541512893  0.041840000000
 CTL5  CN8B  1  0.338541512893  0.041840000000
 CTL5   CN9  1  0.338541512893  0.041840000000
 CTL5     P  1  0.360813980847  0.320014464673
 CTL5    P2  1  0.360813980847  0.320014464673
 CTL5    P3  1  0.360813980847  0.320014464673
 CTL5    P4  1  0.360813980847  0.320014464673
 CTL5   HOL  1  0.189271432669  0.089736802707
 CTL5  HAL1  1  0.286869387241  0.062058748940
 CTL5  HAL2  1  0.288651184677  0.070011711020
 CTL5  HAL3  1  0.288651184677  0.064818249282
 CTL5   HBL  1  0.286869387241  0.062058748940
 CTL5   HCL  1  0.189271432669  0.089736802707
 CTL5    HL  1  0.231633666716  0.089736802707
 CTL5  HEL1  1  0.280633096214  0.073666921749
 CTL5  HEL2  1  0.281523994932  0.067464972838
 CTL5    CL  1  0.347450500075  0.110698234855
 CTL5   CCL  1  0.347450500075  0.110698234855
 CTL5  CTL1  1  0.338541512893  0.041840000000
 CTL5  CTL2  1  0.338541512893  0.041840000000
 CTL5  CTL3  1  0.338541512893  0.041840000000
 CTL5  CTL5  1  0.338541512893  0.041840000000
 CTL5  CEL1  1  0.355468588538  0.109105371453
 CTL5  CEL2  1  0.354577689820  0.105847757841
 CTL5  CRL1  1  0.338541512893  0.041840000000
 CTL5  CRL2  1  0.338541512893  0.041840000000
 CTL5   OBL  1  0.293996576986  0.144938011577
 CTL5   OCL  1  0.320723538531  0.144938011577
 CTL5   O2L  1  0.320723538531  0.144938011577
 CTL5   OHL  1  0.326959829558  0.163176000000
 CTL5   OSL  1  0.316269044940  0.132309697301
 CTL5  OSLP  1  0.316269044940  0.132309697301
 CTL5  NH3L  1  0.334087019303  0.187114168357
 CTL5   NTL  1  0.334087019303  0.187114168357
 CTL5    SL  1  0.356359487256  0.286840588481
 CTL5    PL  1  0.360813980847  0.320014464673
 CTL5 HCA1A  1  0.288651184677  0.088756043175
 CTL5 HCA2A  1  0.288651184677  0.078275472531
 CTL5 HCA3A  1  0.288651184677  0.064818249282
 CTL5 CC30A  1  0.338541512893  0.041840000000
 CTL5 CC31A  1  0.338541512893  0.041840000000
 CTL5 CC32A  1  0.338541512893  0.041840000000
 CTL5 CC33A  1  0.338541512893  0.041840000000
 CTL5 CC326A  1  0.338541512893  0.041840000000
 CTL5 HCA25A  1  0.285087589805  0.078275472531
 CTL5 CC325A  1  0.338541512893  0.041840000000
 CTL5 CC325B  1  0.338541512893  0.041840000000
 CTL5 OC305A  1  0.316269044940  0.132309697301
 CTL5 OC30A  1  0.316269044940  0.132309697301
 CTL5  HSIO  1  0.189271432669  0.089736802707
 CTL5  HSIA  1  0.286869387241  0.062058748940
 CTL5   HAL  1  0.286869387241  0.062058748940
 CTL5    AL  1  0.365268474438  0.337324864189
 CTL5    SI  1  0.365268474438  0.324091246411
 CTL5  SIH3  1  0.365268474438  0.324091246411
 CTL5  OSIH  1  0.326959829558  0.163176000000
 CTL5  OSIE  1  0.326959829558  0.163176000000
 CTL5  OSIA  1  0.326959829558  0.163176000000
 CTL5   OAL  1  0.326959829558  0.163176000000
 CTL5    HT  1  0.189271432669  0.089736802707
 CTL5    OT  1  0.326799467788  0.163176000000
 CTL5   DUM  1  0.169270756447  0.000000000000
 CTL5    CM  1  0.356359487256  0.138767581228
 CTL5   CPA  1  0.329632525712  0.125520000000
 CTL5   CPB  1  0.329632525712  0.125520000000
 CTL5   CPM  1  0.329632525712  0.125520000000
 CTL5   CST  1  0.308518226092  0.100764063435
 CTL5  CT1X  1  0.338541512893  0.041840000000
 CTL5  CT2X  1  0.338541512893  0.041840000000
 CTL5  CT3X  1  0.338541512893  0.041840000000
 CTL5    HB  1  0.286869387241  0.062058748940
 CTL5   NPH  1  0.334087019303  0.187114168357
 CTL5    OM  1  0.320723538531  0.144938011577
 CTL5   OST  1  0.320010819556  0.169954883425
 CTL5   POT  1  0.326403017859  0.123410269913
 CTL5   CAL  1  0.291056611216  0.144938011577
 CTL5    MG  1  0.274842254546  0.051243325419
 CTL5   CES  1  0.356359487256  0.182376331798
 CTL5    ZN  1  0.266378716724  0.209200000000
 CTL5    FE  1  0.227179173126  0.000000000000
 CTL5    HE  1  0.301123766731  0.061020452073
 CTL5    NE  1  0.305578260322  0.122698965603
 CTL5  CLAL  1  0.339272049842  0.072469005789
 CTL5    AG  1  0.300901042052  0.893457908130
 CTL5    AU  1  0.300722862308  0.962320000000
 CTL5    CU  1  0.285800308779  0.908997471504
 CTL5    NI  1  0.282949432881  0.994525446633
 CTL5    PB  1  0.328073452955  0.716185437439
 CTL5    PD  1  0.294842930769  1.037598257516
 CTL5    PT  1  0.296001099102  1.168527606863
 CTL5   CAP  1  0.346773417049  0.110698234855
 CTL5    FA  1  0.320723538531  0.144938011577
 CTL5    CN  1  0.325178032121  0.187114168357
 CTL5    NC  1  0.334087019303  0.324091246411
 CTL5   OCA  1  0.293996576986  0.144938011577
 CTL5   COA  1  0.347450500075  0.138767581228
 CTL5   CF1  1  0.338541512893  0.102486650838
 CTL5   CF2  1  0.351904993665  0.085746484010
 CTL5   CF3  1  0.374177461619  0.059170695450
 CTL5   HF1  1  0.286869387241  0.070011711020
 CTL5   HF2  1  0.285087589805  0.072469005789
 CTL5    F1  1  0.314487247504  0.153729976257
 CTL5    F2  1  0.314487247504  0.135577095411
 CTL5    F3  1  0.311814551349  0.130309939452
 CTL5    OX  1  0.320723538531  0.144938011577
 CTL5    HX  1  0.189271432669  0.089736802707
 CTL5  HPER  1  0.189271432669  0.089736802707
 CTL5  OPER  1  0.318427692534  0.188901923946
 CTL5   LIT  1  0.284864865125  0.020196198771
 CTL5   RUB  1  0.338541512893  0.162045623205
 CTL5   BAR  1  0.337650614175  0.162045623205
 CTL5   CAD  1  0.290165712498  0.144938011577
 CTL5  ON2B  1  0.326959829558  0.163176000000
 CTL5    SP  1  0.365268474438  0.280671252536
 CTL5   HNP  1  0.290272620344  0.072469005789
 CTL5  HNE1  1  0.280633096214  0.073666921749
 CTL5  HNE2  1  0.281523994932  0.067464972838
 CTL5  CN3D  1  0.338541512893  0.125520000000
 CTL5  CNE1  1  0.355468588538  0.109105371453
 CTL5  CNE2  1  0.354577689820  0.105847757841
 CTL5   CNA  1  0.346773417049  0.110698234855
 CTL5  CNA2  1  0.338541512893  0.110698234855
 CTL5   CNG  1  0.347450500075  0.138767581228
 CTL5  NN1C  1  0.334087019303  0.187114168357
 CTL5  NN2C  1  0.334087019303  0.187114168357
 CTL5  NN3I  1  0.334087019303  0.187114168357
 CTL5   NNG  1  0.334087019303  0.187114168357
 CTL5   FNA  1  0.320723538531  0.144938011577
 CTL5  ON2M  1  0.316269044940  0.132309697301
 CTL5   CN6  1  0.338541512893  0.041840000000
 CTL5  CN7E  1  0.338541512893  0.041840000000
 CTL5  CT2P  1  0.338541512893  0.041840000000
 CTL5  CTD1  1  0.338541512893  0.041840000000
 CTL5  CPD1  1  0.338541512893  0.041840000000
 CTL5  CC1A  1  0.355468588538  0.109105371453
 CTL5  CC1B  1  0.355468588538  0.109105371453
 CTL5   CC2  1  0.354577689820  0.105847757841
 CTL5   NS1  1  0.334087019303  0.187114168357
 CTL5   NS2  1  0.334087019303  0.187114168357
 CTL5   NHL  1  0.307360057758  0.187114168357
 CTL5  CTO1  1  0.338541512893  0.041840000000
 CTL5  CEL3  1  0.355468588538  0.109105371453
 CTL5  CTO2  1  0.338541512893  0.041840000000
 CTL5  HN3B  1  0.249451641079  0.089736802707
 CTL5  CN1A  1  0.347450500075  0.110698234855
 CTL5  CN3A  1  0.329632525712  0.177512086349
 CTL5  CN3B  1  0.329632525712  0.177512086349
 CTL5  CN3C  1  0.329632525712  0.177512086349
 CRL1     C  1  0.347450500075  0.138767581228
 CRL1    CA  1  0.346773417049  0.110698234855
 CRL1    CC  1  0.347450500075  0.110698234855
 CRL1    CD  1  0.347450500075  0.110698234855
 CRL1   CE1  1  0.355468588538  0.109105371453
 CRL1   CE2  1  0.354577689820  0.105847757841
 CRL1   CP1  1  0.338541512893  0.041840000000
 CRL1   CP2  1  0.338541512893  0.041840000000
 CRL1   CP3  1  0.338541512893  0.041840000000
 CRL1  CPH1  1  0.329632525712  0.093557084179
 CRL1  CPH2  1  0.329632525712  0.093557084179
 CRL1    CS  1  0.365268474438  0.138767581228
 CRL1   CPT  1  0.334977918021  0.131646486622
 CRL1    CY  1  0.346559601357  0.113045454929
 CRL1   CAI  1  0.346559601357  0.113045454929
 CRL1    CT  1  0.338541512893  0.041840000000
 CRL1   CT1  1  0.338541512893  0.041840000000
 CRL1   CT2  1  0.338541512893  0.041840000000
 CRL1  CT2A  1  0.338541512893  0.041840000000
 CRL1   CT3  1  0.338541512893  0.041840000000
 CRL1    C3  1  0.371950214824  0.059170695450
 CRL1     H  1  0.189271432669  0.089736802707
 CRL1    HA  1  0.286869387241  0.062058748940
 CRL1   HB1  1  0.286869387241  0.062058748940
 CRL1   HB2  1  0.288651184677  0.070011711020
 CRL1   HE1  1  0.280633096214  0.073666921749
 CRL1   HE2  1  0.281523994932  0.067464972838
 CRL1    HC  1  0.189271432669  0.089736802707
 CRL1    HP  1  0.290272620344  0.072469005789
 CRL1   HR1  1  0.249451641079  0.089736802707
 CRL1   HR2  1  0.231633666716  0.089736802707
 CRL1   HR3  1  0.300054688270  0.036952087465
 CRL1    HS  1  0.209361198763  0.132309697301
 CRL1   HA1  1  0.288651184677  0.088756043175
 CRL1   HA2  1  0.288651184677  0.077149148019
 CRL1   HA3  1  0.288651184677  0.064818249282
 CRL1     N  1  0.334087019303  0.004184000000
 CRL1   NC2  1  0.334087019303  0.187114168357
 CRL1   NH1  1  0.307360057758  0.187114168357
 CRL1   NH2  1  0.334087019303  0.187114168357
 CRL1   NH3  1  0.334087019303  0.187114168357
 CRL1    NP  1  0.334087019303  0.187114168357
 CRL1   NR1  1  0.334087019303  0.187114168357
 CRL1   NR2  1  0.334087019303  0.187114168357
 CRL1   NR3  1  0.334087019303  0.187114168357
 CRL1    NY  1  0.334087019303  0.187114168357
 CRL1     O  1  0.293996576986  0.144938011577
 CRL1    OB  1  0.293996576986  0.144938011577
 CRL1    OC  1  0.320723538531  0.144938011577
 CRL1   OH1  1  0.326959829558  0.163176000000
 CRL1    OS  1  0.326959829558  0.163176000000
 CRL1     S  1  0.347450500075  0.280671252536
 CRL1    SM  1  0.345223253279  0.257919081884
 CRL1    SS  1  0.365268474438  0.286840588481
 CRL1  HGA1  1  0.288651184677  0.088756043175
 CRL1  HGA2  1  0.288651184677  0.078275472531
 CRL1  HGA3  1  0.288651184677  0.064818249282
 CRL1  HGA4  1  0.280633096214  0.073666921749
 CRL1  HGA5  1  0.281523994932  0.067464972838
 CRL1  HGA6  1  0.286869387241  0.070011711020
 CRL1  HGA7  1  0.285087589805  0.072469005789
 CRL1 HGAAM0  1  0.283305792369  0.070011711020
 CRL1 HGAAM1  1  0.283305792369  0.070011711020
 CRL1 HGAAM2  1  0.281523994932  0.083680000000
 CRL1  HGP1  1  0.189271432669  0.089736802707
 CRL1  HGP2  1  0.189271432669  0.089736802707
 CRL1  HGP3  1  0.209361198763  0.132309697301
 CRL1  HGP4  1  0.189271432669  0.089736802707
 CRL1  HGP5  1  0.231633666716  0.089736802707
 CRL1 HGPAM1  1  0.247224394284  0.039692909190
 CRL1 HGPAM2  1  0.247224394284  0.041840000000
 CRL1 HGPAM3  1  0.246778944925  0.045833423612
 CRL1 HGR51  1  0.290272620344  0.072469005789
 CRL1 HGR52  1  0.249451641079  0.089736802707
 CRL1 HGR53  1  0.231633666716  0.089736802707
 CRL1 HGR61  1  0.290272620344  0.072469005789
 CRL1 HGR62  1  0.267269615442  0.089736802707
 CRL1 HGR63  1  0.249451641079  0.089736802707
 CRL1 HGR71  1  0.290272620344  0.072469005789
 CRL1 HGTIP3  1  0.189271432669  0.089736802707
 CRL1 CG1T1  1  0.333196120584  0.170981810495
 CRL1 CG1T2  1  0.346782326036  0.134409982486
 CRL1 CG1N1  1  0.335868816739  0.177512086349
 CRL1 CG2D1  1  0.355468588538  0.109105371453
 CRL1 CG2D2  1  0.354577689820  0.105847757841
 CRL1 CG2D1O  1  0.355468588538  0.109105371453
 CRL1 CG2D2O  1  0.355468588538  0.109105371453
 CRL1 CG2DC1  1  0.355468588538  0.109105371453
 CRL1 CG2DC2  1  0.355468588538  0.109105371453
 CRL1 CG2DC3  1  0.354577689820  0.105847757841
 CRL1 CG2N1  1  0.347450500075  0.138767581228
 CRL1 CG2N2  1  0.347450500075  0.138767581228
 CRL1 CG2O1  1  0.347450500075  0.138767581228
 CRL1 CG2O2  1  0.320723538531  0.130979917850
 CRL1 CG2O3  1  0.347450500075  0.110698234855
 CRL1 CG2O4  1  0.329632525712  0.102486650838
 CRL1 CG2O5  1  0.347450500075  0.125520000000
 CRL1 CG2O6  1  0.347450500075  0.110698234855
 CRL1 CG2O7  1  0.308518226092  0.100764063435
 CRL1 CG2R51  1  0.356359487256  0.093557084179
 CRL1 CG2R52  1  0.365268474438  0.059170695450
 CRL1 CG2R53  1  0.365268474438  0.059170695450
 CRL1 CG2R57  1  0.356359487256  0.093557084179
 CRL1 CG25C1  1  0.355468588538  0.109105371453
 CRL1 CG25C2  1  0.355468588538  0.109105371453
 CRL1 CG251O  1  0.355468588538  0.109105371453
 CRL1 CG252O  1  0.355468588538  0.109105371453
 CRL1 CG2R61  1  0.346773417049  0.110698234855
 CRL1 CG2R62  1  0.338541512893  0.125520000000
 CRL1 CG2R63  1  0.338541512893  0.132309697301
 CRL1 CG2R64  1  0.356359487256  0.083680000000
 CRL1 CG2R66  1  0.338541512893  0.110698234855
 CRL1 CG2R67  1  0.346773417049  0.110698234855
 CRL1 CG2RC0  1  0.334977918021  0.131646486622
 CRL1 CG2R71  1  0.346987232741  0.108300154755
 CRL1 CG2RC7  1  0.334977918021  0.131646486622
 CRL1 CG301  1  0.338541512893  0.041840000000
 CRL1 CG302  1  0.374177461619  0.059170695450
 CRL1 CG311  1  0.338541512893  0.041840000000
 CRL1 CG312  1  0.351904993665  0.085746484010
 CRL1 CG314  1  0.338541512893  0.041840000000
 CRL1 CG321  1  0.338541512893  0.041840000000
 CRL1 CG322  1  0.338541512893  0.102486650838
 CRL1 CG323  1  0.365268474438  0.138767581228
 CRL1 CG324  1  0.338541512893  0.041840000000
 CRL1 CG331  1  0.338541512893  0.041840000000
 CRL1 CG334  1  0.338541512893  0.041840000000
 CRL1 CG3C50  1  0.338541512893  0.041840000000
 CRL1 CG3C51  1  0.338541512893  0.041840000000
 CRL1 CG3C52  1  0.338541512893  0.041840000000
 CRL1 CG3C53  1  0.338541512893  0.041840000000
 CRL1 CG3C54  1  0.338541512893  0.041840000000
 CRL1 CG3C31  1  0.338541512893  0.041840000000
 CRL1 CG3C41  1  0.338541512893  0.041840000000
 CRL1 CG3RC1  1  0.338541512893  0.041840000000
 CRL1 CG3AM0  1  0.344777803920  0.110698234855
 CRL1 CG3AM1  1  0.345668702638  0.116852760686
 CRL1 CG3AM2  1  0.346559601357  0.118341390899
 CRL1 NG1T1  1  0.328741626994  0.177512086349
 CRL1 NG2D1  1  0.334087019303  0.187114168357
 CRL1 NG2S0  1  0.334087019303  0.004184000000
 CRL1 NG2S1  1  0.307360057758  0.187114168357
 CRL1 NG2S2  1  0.334087019303  0.187114168357
 CRL1 NG2S3  1  0.334087019303  0.187114168357
 CRL1 NG2O1  1  0.334087019303  0.187114168357
 CRL1 NG2P1  1  0.334087019303  0.187114168357
 CRL1 NG2R43  1  0.334087019303  0.187114168357
 CRL1 NG2R50  1  0.334087019303  0.187114168357
 CRL1 NG2R51  1  0.334087019303  0.187114168357
 CRL1 NG2R52  1  0.334087019303  0.187114168357
 CRL1 NG2R53  1  0.334087019303  0.187114168357
 CRL1 NG2R57  1  0.334087019303  0.187114168357
 CRL1 NG2R60  1  0.337650614175  0.102486650838
 CRL1 NG2R61  1  0.334087019303  0.187114168357
 CRL1 NG2R62  1  0.352795892384  0.093557084179
 CRL1 NG2R67  1  0.334087019303  0.187114168357
 CRL1 NG2RC0  1  0.334087019303  0.187114168357
 CRL1 NG301  1  0.347450500075  0.078275472531
 CRL1 NG311  1  0.347450500075  0.088756043175
 CRL1 NG321  1  0.346559601357  0.102486650838
 CRL1 NG331  1  0.345668702638  0.110698234855
 CRL1 NG3C51  1  0.334087019303  0.187114168357
 CRL1 NG3N1  1  0.351904993665  0.102486650838
 CRL1 NG3P0  1  0.334087019303  0.187114168357
 CRL1 NG3P1  1  0.334087019303  0.187114168357
 CRL1 NG3P2  1  0.334087019303  0.187114168357
 CRL1 NG3P3  1  0.334087019303  0.187114168357
 CRL1 OG2D1  1  0.293996576986  0.144938011577
 CRL1 OG2D2  1  0.320723538531  0.144938011577
 CRL1 OG2D3  1  0.293996576986  0.144938011577
 CRL1 OG2D4  1  0.320723538531  0.144938011577
 CRL1 OG2D5  1  0.320010819556  0.169954883425
 CRL1 OG2N1  1  0.320723538531  0.144938011577
 CRL1 OG2P1  1  0.320723538531  0.144938011577
 CRL1 OG2R50  1  0.320723538531  0.144938011577
 CRL1 OG3R60  1  0.316269044940  0.132309697301
 CRL1 OG301  1  0.316269044940  0.132309697301
 CRL1 OG302  1  0.316269044940  0.132309697301
 CRL1 OG303  1  0.316269044940  0.132309697301
 CRL1 OG304  1  0.316269044940  0.132309697301
 CRL1 OG311  1  0.326514380198  0.183381431383
 CRL1 OG312  1  0.325178032121  0.144938011577
 CRL1 OG3C31  1  0.316269044940  0.132309697301
 CRL1 OG3C51  1  0.316269044940  0.132309697301
 CRL1 OG3C61  1  0.316269044940  0.132309697301
 CRL1 OGTIP3  1  0.326799467788  0.163176000000
 CRL1 SG2D1  1  0.351904993665  0.314496560236
 CRL1 SG2R50  1  0.347450500075  0.280671252536
 CRL1 SG311  1  0.347450500075  0.280671252536
 CRL1 SG301  1  0.345223253279  0.257919081884
 CRL1 SG302  1  0.365268474438  0.286840588481
 CRL1 SG3O1  1  0.356359487256  0.286840588481
 CRL1 SG3O2  1  0.347450500075  0.247528778125
 CRL1 SG3O3  1  0.347450500075  0.247528778125
 CRL1  FGA1  1  0.314487247504  0.153729976257
 CRL1  FGA2  1  0.314487247504  0.135577095411
 CRL1  FGA3  1  0.311814551349  0.130309939452
 CRL1  FGP1  1  0.311814551349  0.130309939452
 CRL1  FGR1  1  0.320723538531  0.144938011577
 CRL1 CLGA1  1  0.339432411611  0.245040988571
 CRL1 CLGA3  1  0.339432411611  0.232955260941
 CRL1 BRGA1  1  0.344777803920  0.289876023155
 CRL1 BRGA2  1  0.351904993665  0.304599797767
 CRL1 BRGA3  1  0.347450500075  0.307459952514
 CRL1   SOD  1  0.294954293108  0.090610410351
 CRL1   CLA  1  0.371504765465  0.162045623205
 CRL1   PG0  1  0.360813980847  0.320014464673
 CRL1   PG1  1  0.360813980847  0.320014464673
 CRL1   PG2  1  0.360813980847  0.320014464673
 CRL1  ALG1  1  0.347450500075  0.337324864189
 CRL1   LPH  1  0.169270756447  0.000000000000
 CRL1 CLGR1  1  0.334977918021  0.200657590935
 CRL1 BRGR1  1  0.345668702638  0.236682781799
 CRL1  IGR1  1  0.368832069310  0.301712530731
 CRL1 SG2P1  1  0.355798221064  0.332305491450
 CRL1 OG2S1  1  0.318906105146  0.157831660601
 CRL1 SG2P2  1  0.352314807076  0.329421919951
 CRL1 SEGD1  1  0.363041227642  0.330244580395
 CRL1 BG201  1  0.396449929572  0.081561175077
 CRL1 CC301  1  0.338541512893  0.041840000000
 CRL1 CC3062  1  0.338541512893  0.041840000000
 CRL1 CC311  1  0.338541512893  0.041840000000
 CRL1 CC3161  1  0.338541512893  0.041840000000
 CRL1 CC3162  1  0.338541512893  0.041840000000
 CRL1 CC3163  1  0.338541512893  0.041840000000
 CRL1 CC321  1  0.338541512893  0.041840000000
 CRL1 CC3261  1  0.338541512893  0.041840000000
 CRL1 CC3263  1  0.338541512893  0.041840000000
 CRL1 CC331  1  0.338541512893  0.041840000000
 CRL1 CC2O1  1  0.347450500075  0.138767581228
 CRL1 CC2O2  1  0.347450500075  0.110698234855
 CRL1 CC2O3  1  0.347450500075  0.125520000000
 CRL1 CC2O4  1  0.329632525712  0.102486650838
 CRL1 CC2O5  1  0.320723538531  0.130979917850
 CRL1 OC2D1  1  0.293996576986  0.144938011577
 CRL1 OC2D2  1  0.320723538531  0.144938011577
 CRL1 OC2D3  1  0.293996576986  0.144938011577
 CRL1 OC2D4  1  0.293996576986  0.144938011577
 CRL1 OC3C61  1  0.316269044940  0.132309697301
 CRL1 OC311  1  0.326514380198  0.183381431383
 CRL1 NC2D1  1  0.307360057758  0.187114168357
 CRL1  HCP1  1  0.189271432669  0.089736802707
 CRL1  HCA1  1  0.288651184677  0.088756043175
 CRL1  HCA2  1  0.288651184677  0.078275472531
 CRL1  HCA3  1  0.288651184677  0.064818249282
 CRL1 CC312  1  0.338541512893  0.041840000000
 CRL1 CC322  1  0.338541512893  0.041840000000
 CRL1  HCR1  1  0.240542653898  0.089736802707
 CRL1 HCA3M  1  0.288651184677  0.064818249282
 CRL1 CC321C  1  0.338541512893  0.041840000000
 CRL1 CC321D  1  0.338541512893  0.041840000000
 CRL1 CC311C  1  0.338541512893  0.041840000000
 CRL1 CC311D  1  0.338541512893  0.041840000000
 CRL1 OC301  1  0.316269044940  0.132309697301
 CRL1 OC302  1  0.316269044940  0.132309697301
 CRL1 HCP1M  1  0.189271432669  0.089736802707
 CRL1 OC311M  1  0.326514380198  0.183381431383
 CRL1 OC3C5M  1  0.316269044940  0.132309697301
 CRL1 CC322C  1  0.338541512893  0.041840000000
 CRL1 HCA2C2  1  0.285087589805  0.078275472531
 CRL1 CC312C  1  0.338541512893  0.041840000000
 CRL1 HCA1C2  1  0.288651184677  0.088756043175
 CRL1 OC3C51  1  0.316269044940  0.132309697301
 CRL1 CC3152  1  0.338541512893  0.041840000000
 CRL1 CC3051  1  0.338541512893  0.041840000000
 CRL1 CC3251  1  0.338541512893  0.041840000000
 CRL1 CC3151  1  0.338541512893  0.041840000000
 CRL1 CC3153  1  0.338541512893  0.041840000000
 CRL1 OC2DP  1  0.320723538531  0.144938011577
 CRL1 OC312  1  0.326959829558  0.163176000000
 CRL1 OC30P  1  0.326959829558  0.163176000000
 CRL1    PC  1  0.360813980847  0.320014464673
 CRL1    SC  1  0.356359487256  0.286840588481
 CRL1 CC312D  1  0.338541512893  0.041840000000
 CRL1 OC303  1  0.316269044940  0.132309697301
 CRL1 NC311  1  0.347450500075  0.088756043175
 CRL1   HN1  1  0.189271432669  0.089736802707
 CRL1   HN2  1  0.189271432669  0.089736802707
 CRL1   HN3  1  0.267269615442  0.089736802707
 CRL1   HN4  1  0.189271432669  0.089736802707
 CRL1   HN5  1  0.189271432669  0.089736802707
 CRL1   HN6  1  0.286869387241  0.062058748940
 CRL1   HN7  1  0.286869387241  0.062058748940
 CRL1   HN8  1  0.288651184677  0.070011711020
 CRL1   HN9  1  0.288651184677  0.064818249282
 CRL1   NN1  1  0.334087019303  0.187114168357
 CRL1   NN2  1  0.334087019303  0.187114168357
 CRL1  NN2B  1  0.334087019303  0.187114168357
 CRL1  NN2G  1  0.334087019303  0.187114168357
 CRL1  NN2U  1  0.334087019303  0.187114168357
 CRL1   NN3  1  0.334087019303  0.187114168357
 CRL1  NN3A  1  0.334087019303  0.187114168357
 CRL1  NN3G  1  0.334087019303  0.187114168357
 CRL1   NN4  1  0.334087019303  0.187114168357
 CRL1   NN6  1  0.334087019303  0.187114168357
 CRL1   ON1  1  0.320723538531  0.144938011577
 CRL1  ON1C  1  0.320723538531  0.144938011577
 CRL1   ON2  1  0.326959829558  0.163176000000
 CRL1   ON3  1  0.320723538531  0.144938011577
 CRL1   ON4  1  0.326959829558  0.163176000000
 CRL1   ON5  1  0.326959829558  0.163176000000
 CRL1   ON6  1  0.326959829558  0.163176000000
 CRL1  ON6B  1  0.326959829558  0.163176000000
 CRL1   CN1  1  0.338541512893  0.132309697301
 CRL1  CN1T  1  0.338541512893  0.132309697301
 CRL1   CN2  1  0.338541512893  0.132309697301
 CRL1   CN3  1  0.338541512893  0.125520000000
 CRL1  CN3T  1  0.338541512893  0.125520000000
 CRL1   CN4  1  0.338541512893  0.114583559030
 CRL1   CN5  1  0.338541512893  0.114583559030
 CRL1  CN5G  1  0.338541512893  0.114583559030
 CRL1   CN7  1  0.338541512893  0.041840000000
 CRL1  CN7B  1  0.338541512893  0.041840000000
 CRL1   CN8  1  0.338541512893  0.041840000000
 CRL1  CN8B  1  0.338541512893  0.041840000000
 CRL1   CN9  1  0.338541512893  0.041840000000
 CRL1     P  1  0.360813980847  0.320014464673
 CRL1    P2  1  0.360813980847  0.320014464673
 CRL1    P3  1  0.360813980847  0.320014464673
 CRL1    P4  1  0.360813980847  0.320014464673
 CRL1   HOL  1  0.189271432669  0.089736802707
 CRL1  HAL1  1  0.286869387241  0.062058748940
 CRL1  HAL2  1  0.288651184677  0.070011711020
 CRL1  HAL3  1  0.288651184677  0.064818249282
 CRL1   HBL  1  0.286869387241  0.062058748940
 CRL1   HCL  1  0.189271432669  0.089736802707
 CRL1    HL  1  0.231633666716  0.089736802707
 CRL1  HEL1  1  0.280633096214  0.073666921749
 CRL1  HEL2  1  0.281523994932  0.067464972838
 CRL1    CL  1  0.347450500075  0.110698234855
 CRL1   CCL  1  0.347450500075  0.110698234855
 CRL1  CTL1  1  0.338541512893  0.041840000000
 CRL1  CTL2  1  0.338541512893  0.041840000000
 CRL1  CTL3  1  0.338541512893  0.041840000000
 CRL1  CTL5  1  0.338541512893  0.041840000000
 CRL1  CEL1  1  0.355468588538  0.109105371453
 CRL1  CEL2  1  0.354577689820  0.105847757841
 CRL1  CRL1  1  0.338541512893  0.041840000000
 CRL1  CRL2  1  0.338541512893  0.041840000000
 CRL1   OBL  1  0.293996576986  0.144938011577
 CRL1   OCL  1  0.320723538531  0.144938011577
 CRL1   O2L  1  0.320723538531  0.144938011577
 CRL1   OHL  1  0.326959829558  0.163176000000
 CRL1   OSL  1  0.316269044940  0.132309697301
 CRL1  OSLP  1  0.316269044940  0.132309697301
 CRL1  NH3L  1  0.334087019303  0.187114168357
 CRL1   NTL  1  0.334087019303  0.187114168357
 CRL1    SL  1  0.356359487256  0.286840588481
 CRL1    PL  1  0.360813980847  0.320014464673
 CRL1 HCA1A  1  0.288651184677  0.088756043175
 CRL1 HCA2A  1  0.288651184677  0.078275472531
 CRL1 HCA3A  1  0.288651184677  0.064818249282
 CRL1 CC30A  1  0.338541512893  0.041840000000
 CRL1 CC31A  1  0.338541512893  0.041840000000
 CRL1 CC32A  1  0.338541512893  0.041840000000
 CRL1 CC33A  1  0.338541512893  0.041840000000
 CRL1 CC326A  1  0.338541512893  0.041840000000
 CRL1 HCA25A  1  0.285087589805  0.078275472531
 CRL1 CC325A  1  0.338541512893  0.041840000000
 CRL1 CC325B  1  0.338541512893  0.041840000000
 CRL1 OC305A  1  0.316269044940  0.132309697301
 CRL1 OC30A  1  0.316269044940  0.132309697301
 CRL1  HSIO  1  0.189271432669  0.089736802707
 CRL1  HSIA  1  0.286869387241  0.062058748940
 CRL1   HAL  1  0.286869387241  0.062058748940
 CRL1    AL  1  0.365268474438  0.337324864189
 CRL1    SI  1  0.365268474438  0.324091246411
 CRL1  SIH3  1  0.365268474438  0.324091246411
 CRL1  OSIH  1  0.326959829558  0.163176000000
 CRL1  OSIE  1  0.326959829558  0.163176000000
 CRL1  OSIA  1  0.326959829558  0.163176000000
 CRL1   OAL  1  0.326959829558  0.163176000000
 CRL1    HT  1  0.189271432669  0.089736802707
 CRL1    OT  1  0.326799467788  0.163176000000
 CRL1   DUM  1  0.169270756447  0.000000000000
 CRL1    CM  1  0.356359487256  0.138767581228
 CRL1   CPA  1  0.329632525712  0.125520000000
 CRL1   CPB  1  0.329632525712  0.125520000000
 CRL1   CPM  1  0.329632525712  0.125520000000
 CRL1   CST  1  0.308518226092  0.100764063435
 CRL1  CT1X  1  0.338541512893  0.041840000000
 CRL1  CT2X  1  0.338541512893  0.041840000000
 CRL1  CT3X  1  0.338541512893  0.041840000000
 CRL1    HB  1  0.286869387241  0.062058748940
 CRL1   NPH  1  0.334087019303  0.187114168357
 CRL1    OM  1  0.320723538531  0.144938011577
 CRL1   OST  1  0.320010819556  0.169954883425
 CRL1   POT  1  0.326403017859  0.123410269913
 CRL1   CAL  1  0.291056611216  0.144938011577
 CRL1    MG  1  0.274842254546  0.051243325419
 CRL1   CES  1  0.356359487256  0.182376331798
 CRL1    ZN  1  0.266378716724  0.209200000000
 CRL1    FE  1  0.227179173126  0.000000000000
 CRL1    HE  1  0.301123766731  0.061020452073
 CRL1    NE  1  0.305578260322  0.122698965603
 CRL1  CLAL  1  0.339272049842  0.072469005789
 CRL1    AG  1  0.300901042052  0.893457908130
 CRL1    AU  1  0.300722862308  0.962320000000
 CRL1    CU  1  0.285800308779  0.908997471504
 CRL1    NI  1  0.282949432881  0.994525446633
 CRL1    PB  1  0.328073452955  0.716185437439
 CRL1    PD  1  0.294842930769  1.037598257516
 CRL1    PT  1  0.296001099102  1.168527606863
 CRL1   CAP  1  0.346773417049  0.110698234855
 CRL1    FA  1  0.320723538531  0.144938011577
 CRL1    CN  1  0.325178032121  0.187114168357
 CRL1    NC  1  0.334087019303  0.324091246411
 CRL1   OCA  1  0.293996576986  0.144938011577
 CRL1   COA  1  0.347450500075  0.138767581228
 CRL1   CF1  1  0.338541512893  0.102486650838
 CRL1   CF2  1  0.351904993665  0.085746484010
 CRL1   CF3  1  0.374177461619  0.059170695450
 CRL1   HF1  1  0.286869387241  0.070011711020
 CRL1   HF2  1  0.285087589805  0.072469005789
 CRL1    F1  1  0.314487247504  0.153729976257
 CRL1    F2  1  0.314487247504  0.135577095411
 CRL1    F3  1  0.311814551349  0.130309939452
 CRL1    OX  1  0.320723538531  0.144938011577
 CRL1    HX  1  0.189271432669  0.089736802707
 CRL1  HPER  1  0.189271432669  0.089736802707
 CRL1  OPER  1  0.318427692534  0.188901923946
 CRL1   LIT  1  0.284864865125  0.020196198771
 CRL1   RUB  1  0.338541512893  0.162045623205
 CRL1   BAR  1  0.337650614175  0.162045623205
 CRL1   CAD  1  0.290165712498  0.144938011577
 CRL1  ON2B  1  0.326959829558  0.163176000000
 CRL1    SP  1  0.365268474438  0.280671252536
 CRL1   HNP  1  0.290272620344  0.072469005789
 CRL1  HNE1  1  0.280633096214  0.073666921749
 CRL1  HNE2  1  0.281523994932  0.067464972838
 CRL1  CN3D  1  0.338541512893  0.125520000000
 CRL1  CNE1  1  0.355468588538  0.109105371453
 CRL1  CNE2  1  0.354577689820  0.105847757841
 CRL1   CNA  1  0.346773417049  0.110698234855
 CRL1  CNA2  1  0.338541512893  0.110698234855
 CRL1   CNG  1  0.347450500075  0.138767581228
 CRL1  NN1C  1  0.334087019303  0.187114168357
 CRL1  NN2C  1  0.334087019303  0.187114168357
 CRL1  NN3I  1  0.334087019303  0.187114168357
 CRL1   NNG  1  0.334087019303  0.187114168357
 CRL1   FNA  1  0.320723538531  0.144938011577
 CRL1  ON2M  1  0.316269044940  0.132309697301
 CRL1   CN6  1  0.338541512893  0.041840000000
 CRL1  CN7E  1  0.338541512893  0.041840000000
 CRL1  CT2P  1  0.338541512893  0.041840000000
 CRL1  CTD1  1  0.338541512893  0.041840000000
 CRL1  CPD1  1  0.338541512893  0.041840000000
 CRL1  CC1A  1  0.355468588538  0.109105371453
 CRL1  CC1B  1  0.355468588538  0.109105371453
 CRL1   CC2  1  0.354577689820  0.105847757841
 CRL1   NS1  1  0.334087019303  0.187114168357
 CRL1   NS2  1  0.334087019303  0.187114168357
 CRL1   NHL  1  0.307360057758  0.187114168357
 CRL1  CTO1  1  0.338541512893  0.041840000000
 CRL1  CEL3  1  0.355468588538  0.109105371453
 CRL1  CTO2  1  0.338541512893  0.041840000000
 CRL1  HN3B  1  0.249451641079  0.089736802707
 CRL1  CN1A  1  0.347450500075  0.110698234855
 CRL1  CN3A  1  0.329632525712  0.177512086349
 CRL1  CN3B  1  0.329632525712  0.177512086349
 CRL1  CN3C  1  0.329632525712  0.177512086349
 CRL2     C  1  0.347450500075  0.138767581228
 CRL2    CA  1  0.346773417049  0.110698234855
 CRL2    CC  1  0.347450500075  0.110698234855
 CRL2    CD  1  0.347450500075  0.110698234855
 CRL2   CE1  1  0.355468588538  0.109105371453
 CRL2   CE2  1  0.354577689820  0.105847757841
 CRL2   CP1  1  0.338541512893  0.041840000000
 CRL2   CP2  1  0.338541512893  0.041840000000
 CRL2   CP3  1  0.338541512893  0.041840000000
 CRL2  CPH1  1  0.329632525712  0.093557084179
 CRL2  CPH2  1  0.329632525712  0.093557084179
 CRL2    CS  1  0.365268474438  0.138767581228
 CRL2   CPT  1  0.334977918021  0.131646486622
 CRL2    CY  1  0.346559601357  0.113045454929
 CRL2   CAI  1  0.346559601357  0.113045454929
 CRL2    CT  1  0.338541512893  0.041840000000
 CRL2   CT1  1  0.338541512893  0.041840000000
 CRL2   CT2  1  0.338541512893  0.041840000000
 CRL2  CT2A  1  0.338541512893  0.041840000000
 CRL2   CT3  1  0.338541512893  0.041840000000
 CRL2    C3  1  0.371950214824  0.059170695450
 CRL2     H  1  0.189271432669  0.089736802707
 CRL2    HA  1  0.286869387241  0.062058748940
 CRL2   HB1  1  0.286869387241  0.062058748940
 CRL2   HB2  1  0.288651184677  0.070011711020
 CRL2   HE1  1  0.280633096214  0.073666921749
 CRL2   HE2  1  0.281523994932  0.067464972838
 CRL2    HC  1  0.189271432669  0.089736802707
 CRL2    HP  1  0.290272620344  0.072469005789
 CRL2   HR1  1  0.249451641079  0.089736802707
 CRL2   HR2  1  0.231633666716  0.089736802707
 CRL2   HR3  1  0.300054688270  0.036952087465
 CRL2    HS  1  0.209361198763  0.132309697301
 CRL2   HA1  1  0.288651184677  0.088756043175
 CRL2   HA2  1  0.288651184677  0.077149148019
 CRL2   HA3  1  0.288651184677  0.064818249282
 CRL2     N  1  0.334087019303  0.004184000000
 CRL2   NC2  1  0.334087019303  0.187114168357
 CRL2   NH1  1  0.307360057758  0.187114168357
 CRL2   NH2  1  0.334087019303  0.187114168357
 CRL2   NH3  1  0.334087019303  0.187114168357
 CRL2    NP  1  0.334087019303  0.187114168357
 CRL2   NR1  1  0.334087019303  0.187114168357
 CRL2   NR2  1  0.334087019303  0.187114168357
 CRL2   NR3  1  0.334087019303  0.187114168357
 CRL2    NY  1  0.334087019303  0.187114168357
 CRL2     O  1  0.293996576986  0.144938011577
 CRL2    OB  1  0.293996576986  0.144938011577
 CRL2    OC  1  0.320723538531  0.144938011577
 CRL2   OH1  1  0.326959829558  0.163176000000
 CRL2    OS  1  0.326959829558  0.163176000000
 CRL2     S  1  0.347450500075  0.280671252536
 CRL2    SM  1  0.345223253279  0.257919081884
 CRL2    SS  1  0.365268474438  0.286840588481
 CRL2  HGA1  1  0.288651184677  0.088756043175
 CRL2  HGA2  1  0.288651184677  0.078275472531
 CRL2  HGA3  1  0.288651184677  0.064818249282
 CRL2  HGA4  1  0.280633096214  0.073666921749
 CRL2  HGA5  1  0.281523994932  0.067464972838
 CRL2  HGA6  1  0.286869387241  0.070011711020
 CRL2  HGA7  1  0.285087589805  0.072469005789
 CRL2 HGAAM0  1  0.283305792369  0.070011711020
 CRL2 HGAAM1  1  0.283305792369  0.070011711020
 CRL2 HGAAM2  1  0.281523994932  0.083680000000
 CRL2  HGP1  1  0.189271432669  0.089736802707
 CRL2  HGP2  1  0.189271432669  0.089736802707
 CRL2  HGP3  1  0.209361198763  0.132309697301
 CRL2  HGP4  1  0.189271432669  0.089736802707
 CRL2  HGP5  1  0.231633666716  0.089736802707
 CRL2 HGPAM1  1  0.247224394284  0.039692909190
 CRL2 HGPAM2  1  0.247224394284  0.041840000000
 CRL2 HGPAM3  1  0.246778944925  0.045833423612
 CRL2 HGR51  1  0.290272620344  0.072469005789
 CRL2 HGR52  1  0.249451641079  0.089736802707
 CRL2 HGR53  1  0.231633666716  0.089736802707
 CRL2 HGR61  1  0.290272620344  0.072469005789
 CRL2 HGR62  1  0.267269615442  0.089736802707
 CRL2 HGR63  1  0.249451641079  0.089736802707
 CRL2 HGR71  1  0.290272620344  0.072469005789
 CRL2 HGTIP3  1  0.189271432669  0.089736802707
 CRL2 CG1T1  1  0.333196120584  0.170981810495
 CRL2 CG1T2  1  0.346782326036  0.134409982486
 CRL2 CG1N1  1  0.335868816739  0.177512086349
 CRL2 CG2D1  1  0.355468588538  0.109105371453
 CRL2 CG2D2  1  0.354577689820  0.105847757841
 CRL2 CG2D1O  1  0.355468588538  0.109105371453
 CRL2 CG2D2O  1  0.355468588538  0.109105371453
 CRL2 CG2DC1  1  0.355468588538  0.109105371453
 CRL2 CG2DC2  1  0.355468588538  0.109105371453
 CRL2 CG2DC3  1  0.354577689820  0.105847757841
 CRL2 CG2N1  1  0.347450500075  0.138767581228
 CRL2 CG2N2  1  0.347450500075  0.138767581228
 CRL2 CG2O1  1  0.347450500075  0.138767581228
 CRL2 CG2O2  1  0.320723538531  0.130979917850
 CRL2 CG2O3  1  0.347450500075  0.110698234855
 CRL2 CG2O4  1  0.329632525712  0.102486650838
 CRL2 CG2O5  1  0.347450500075  0.125520000000
 CRL2 CG2O6  1  0.347450500075  0.110698234855
 CRL2 CG2O7  1  0.308518226092  0.100764063435
 CRL2 CG2R51  1  0.356359487256  0.093557084179
 CRL2 CG2R52  1  0.365268474438  0.059170695450
 CRL2 CG2R53  1  0.365268474438  0.059170695450
 CRL2 CG2R57  1  0.356359487256  0.093557084179
 CRL2 CG25C1  1  0.355468588538  0.109105371453
 CRL2 CG25C2  1  0.355468588538  0.109105371453
 CRL2 CG251O  1  0.355468588538  0.109105371453
 CRL2 CG252O  1  0.355468588538  0.109105371453
 CRL2 CG2R61  1  0.346773417049  0.110698234855
 CRL2 CG2R62  1  0.338541512893  0.125520000000
 CRL2 CG2R63  1  0.338541512893  0.132309697301
 CRL2 CG2R64  1  0.356359487256  0.083680000000
 CRL2 CG2R66  1  0.338541512893  0.110698234855
 CRL2 CG2R67  1  0.346773417049  0.110698234855
 CRL2 CG2RC0  1  0.334977918021  0.131646486622
 CRL2 CG2R71  1  0.346987232741  0.108300154755
 CRL2 CG2RC7  1  0.334977918021  0.131646486622
 CRL2 CG301  1  0.338541512893  0.041840000000
 CRL2 CG302  1  0.374177461619  0.059170695450
 CRL2 CG311  1  0.338541512893  0.041840000000
 CRL2 CG312  1  0.351904993665  0.085746484010
 CRL2 CG314  1  0.338541512893  0.041840000000
 CRL2 CG321  1  0.338541512893  0.041840000000
 CRL2 CG322  1  0.338541512893  0.102486650838
 CRL2 CG323  1  0.365268474438  0.138767581228
 CRL2 CG324  1  0.338541512893  0.041840000000
 CRL2 CG331  1  0.338541512893  0.041840000000
 CRL2 CG334  1  0.338541512893  0.041840000000
 CRL2 CG3C50  1  0.338541512893  0.041840000000
 CRL2 CG3C51  1  0.338541512893  0.041840000000
 CRL2 CG3C52  1  0.338541512893  0.041840000000
 CRL2 CG3C53  1  0.338541512893  0.041840000000
 CRL2 CG3C54  1  0.338541512893  0.041840000000
 CRL2 CG3C31  1  0.338541512893  0.041840000000
 CRL2 CG3C41  1  0.338541512893  0.041840000000
 CRL2 CG3RC1  1  0.338541512893  0.041840000000
 CRL2 CG3AM0  1  0.344777803920  0.110698234855
 CRL2 CG3AM1  1  0.345668702638  0.116852760686
 CRL2 CG3AM2  1  0.346559601357  0.118341390899
 CRL2 NG1T1  1  0.328741626994  0.177512086349
 CRL2 NG2D1  1  0.334087019303  0.187114168357
 CRL2 NG2S0  1  0.334087019303  0.004184000000
 CRL2 NG2S1  1  0.307360057758  0.187114168357
 CRL2 NG2S2  1  0.334087019303  0.187114168357
 CRL2 NG2S3  1  0.334087019303  0.187114168357
 CRL2 NG2O1  1  0.334087019303  0.187114168357
 CRL2 NG2P1  1  0.334087019303  0.187114168357
 CRL2 NG2R43  1  0.334087019303  0.187114168357
 CRL2 NG2R50  1  0.334087019303  0.187114168357
 CRL2 NG2R51  1  0.334087019303  0.187114168357
 CRL2 NG2R52  1  0.334087019303  0.187114168357
 CRL2 NG2R53  1  0.334087019303  0.187114168357
 CRL2 NG2R57  1  0.334087019303  0.187114168357
 CRL2 NG2R60  1  0.337650614175  0.102486650838
 CRL2 NG2R61  1  0.334087019303  0.187114168357
 CRL2 NG2R62  1  0.352795892384  0.093557084179
 CRL2 NG2R67  1  0.334087019303  0.187114168357
 CRL2 NG2RC0  1  0.334087019303  0.187114168357
 CRL2 NG301  1  0.347450500075  0.078275472531
 CRL2 NG311  1  0.347450500075  0.088756043175
 CRL2 NG321  1  0.346559601357  0.102486650838
 CRL2 NG331  1  0.345668702638  0.110698234855
 CRL2 NG3C51  1  0.334087019303  0.187114168357
 CRL2 NG3N1  1  0.351904993665  0.102486650838
 CRL2 NG3P0  1  0.334087019303  0.187114168357
 CRL2 NG3P1  1  0.334087019303  0.187114168357
 CRL2 NG3P2  1  0.334087019303  0.187114168357
 CRL2 NG3P3  1  0.334087019303  0.187114168357
 CRL2 OG2D1  1  0.293996576986  0.144938011577
 CRL2 OG2D2  1  0.320723538531  0.144938011577
 CRL2 OG2D3  1  0.293996576986  0.144938011577
 CRL2 OG2D4  1  0.320723538531  0.144938011577
 CRL2 OG2D5  1  0.320010819556  0.169954883425
 CRL2 OG2N1  1  0.320723538531  0.144938011577
 CRL2 OG2P1  1  0.320723538531  0.144938011577
 CRL2 OG2R50  1  0.320723538531  0.144938011577
 CRL2 OG3R60  1  0.316269044940  0.132309697301
 CRL2 OG301  1  0.316269044940  0.132309697301
 CRL2 OG302  1  0.316269044940  0.132309697301
 CRL2 OG303  1  0.316269044940  0.132309697301
 CRL2 OG304  1  0.316269044940  0.132309697301
 CRL2 OG311  1  0.326514380198  0.183381431383
 CRL2 OG312  1  0.325178032121  0.144938011577
 CRL2 OG3C31  1  0.316269044940  0.132309697301
 CRL2 OG3C51  1  0.316269044940  0.132309697301
 CRL2 OG3C61  1  0.316269044940  0.132309697301
 CRL2 OGTIP3  1  0.326799467788  0.163176000000
 CRL2 SG2D1  1  0.351904993665  0.314496560236
 CRL2 SG2R50  1  0.347450500075  0.280671252536
 CRL2 SG311  1  0.347450500075  0.280671252536
 CRL2 SG301  1  0.345223253279  0.257919081884
 CRL2 SG302  1  0.365268474438  0.286840588481
 CRL2 SG3O1  1  0.356359487256  0.286840588481
 CRL2 SG3O2  1  0.347450500075  0.247528778125
 CRL2 SG3O3  1  0.347450500075  0.247528778125
 CRL2  FGA1  1  0.314487247504  0.153729976257
 CRL2  FGA2  1  0.314487247504  0.135577095411
 CRL2  FGA3  1  0.311814551349  0.130309939452
 CRL2  FGP1  1  0.311814551349  0.130309939452
 CRL2  FGR1  1  0.320723538531  0.144938011577
 CRL2 CLGA1  1  0.339432411611  0.245040988571
 CRL2 CLGA3  1  0.339432411611  0.232955260941
 CRL2 BRGA1  1  0.344777803920  0.289876023155
 CRL2 BRGA2  1  0.351904993665  0.304599797767
 CRL2 BRGA3  1  0.347450500075  0.307459952514
 CRL2   SOD  1  0.294954293108  0.090610410351
 CRL2   CLA  1  0.371504765465  0.162045623205
 CRL2   PG0  1  0.360813980847  0.320014464673
 CRL2   PG1  1  0.360813980847  0.320014464673
 CRL2   PG2  1  0.360813980847  0.320014464673
 CRL2  ALG1  1  0.347450500075  0.337324864189
 CRL2   LPH  1  0.169270756447  0.000000000000
 CRL2 CLGR1  1  0.334977918021  0.200657590935
 CRL2 BRGR1  1  0.345668702638  0.236682781799
 CRL2  IGR1  1  0.368832069310  0.301712530731
 CRL2 SG2P1  1  0.355798221064  0.332305491450
 CRL2 OG2S1  1  0.318906105146  0.157831660601
 CRL2 SG2P2  1  0.352314807076  0.329421919951
 CRL2 SEGD1  1  0.363041227642  0.330244580395
 CRL2 BG201  1  0.396449929572  0.081561175077
 CRL2 CC301  1  0.338541512893  0.041840000000
 CRL2 CC3062  1  0.338541512893  0.041840000000
 CRL2 CC311  1  0.338541512893  0.041840000000
 CRL2 CC3161  1  0.338541512893  0.041840000000
 CRL2 CC3162  1  0.338541512893  0.041840000000
 CRL2 CC3163  1  0.338541512893  0.041840000000
 CRL2 CC321  1  0.338541512893  0.041840000000
 CRL2 CC3261  1  0.338541512893  0.041840000000
 CRL2 CC3263  1  0.338541512893  0.041840000000
 CRL2 CC331  1  0.338541512893  0.041840000000
 CRL2 CC2O1  1  0.347450500075  0.138767581228
 CRL2 CC2O2  1  0.347450500075  0.110698234855
 CRL2 CC2O3  1  0.347450500075  0.125520000000
 CRL2 CC2O4  1  0.329632525712  0.102486650838
 CRL2 CC2O5  1  0.320723538531  0.130979917850
 CRL2 OC2D1  1  0.293996576986  0.144938011577
 CRL2 OC2D2  1  0.320723538531  0.144938011577
 CRL2 OC2D3  1  0.293996576986  0.144938011577
 CRL2 OC2D4  1  0.293996576986  0.144938011577
 CRL2 OC3C61  1  0.316269044940  0.132309697301
 CRL2 OC311  1  0.326514380198  0.183381431383
 CRL2 NC2D1  1  0.307360057758  0.187114168357
 CRL2  HCP1  1  0.189271432669  0.089736802707
 CRL2  HCA1  1  0.288651184677  0.088756043175
 CRL2  HCA2  1  0.288651184677  0.078275472531
 CRL2  HCA3  1  0.288651184677  0.064818249282
 CRL2 CC312  1  0.338541512893  0.041840000000
 CRL2 CC322  1  0.338541512893  0.041840000000
 CRL2  HCR1  1  0.240542653898  0.089736802707
 CRL2 HCA3M  1  0.288651184677  0.064818249282
 CRL2 CC321C  1  0.338541512893  0.041840000000
 CRL2 CC321D  1  0.338541512893  0.041840000000
 CRL2 CC311C  1  0.338541512893  0.041840000000
 CRL2 CC311D  1  0.338541512893  0.041840000000
 CRL2 OC301  1  0.316269044940  0.132309697301
 CRL2 OC302  1  0.316269044940  0.132309697301
 CRL2 HCP1M  1  0.189271432669  0.089736802707
 CRL2 OC311M  1  0.326514380198  0.183381431383
 CRL2 OC3C5M  1  0.316269044940  0.132309697301
 CRL2 CC322C  1  0.338541512893  0.041840000000
 CRL2 HCA2C2  1  0.285087589805  0.078275472531
 CRL2 CC312C  1  0.338541512893  0.041840000000
 CRL2 HCA1C2  1  0.288651184677  0.088756043175
 CRL2 OC3C51  1  0.316269044940  0.132309697301
 CRL2 CC3152  1  0.338541512893  0.041840000000
 CRL2 CC3051  1  0.338541512893  0.041840000000
 CRL2 CC3251  1  0.338541512893  0.041840000000
 CRL2 CC3151  1  0.338541512893  0.041840000000
 CRL2 CC3153  1  0.338541512893  0.041840000000
 CRL2 OC2DP  1  0.320723538531  0.144938011577
 CRL2 OC312  1  0.326959829558  0.163176000000
 CRL2 OC30P  1  0.326959829558  0.163176000000
 CRL2    PC  1  0.360813980847  0.320014464673
 CRL2    SC  1  0.356359487256  0.286840588481
 CRL2 CC312D  1  0.338541512893  0.041840000000
 CRL2 OC303  1  0.316269044940  0.132309697301
 CRL2 NC311  1  0.347450500075  0.088756043175
 CRL2   HN1  1  0.189271432669  0.089736802707
 CRL2   HN2  1  0.189271432669  0.089736802707
 CRL2   HN3  1  0.267269615442  0.089736802707
 CRL2   HN4  1  0.189271432669  0.089736802707
 CRL2   HN5  1  0.189271432669  0.089736802707
 CRL2   HN6  1  0.286869387241  0.062058748940
 CRL2   HN7  1  0.286869387241  0.062058748940
 CRL2   HN8  1  0.288651184677  0.070011711020
 CRL2   HN9  1  0.288651184677  0.064818249282
 CRL2   NN1  1  0.334087019303  0.187114168357
 CRL2   NN2  1  0.334087019303  0.187114168357
 CRL2  NN2B  1  0.334087019303  0.187114168357
 CRL2  NN2G  1  0.334087019303  0.187114168357
 CRL2  NN2U  1  0.334087019303  0.187114168357
 CRL2   NN3  1  0.334087019303  0.187114168357
 CRL2  NN3A  1  0.334087019303  0.187114168357
 CRL2  NN3G  1  0.334087019303  0.187114168357
 CRL2   NN4  1  0.334087019303  0.187114168357
 CRL2   NN6  1  0.334087019303  0.187114168357
 CRL2   ON1  1  0.320723538531  0.144938011577
 CRL2  ON1C  1  0.320723538531  0.144938011577
 CRL2   ON2  1  0.326959829558  0.163176000000
 CRL2   ON3  1  0.320723538531  0.144938011577
 CRL2   ON4  1  0.326959829558  0.163176000000
 CRL2   ON5  1  0.326959829558  0.163176000000
 CRL2   ON6  1  0.326959829558  0.163176000000
 CRL2  ON6B  1  0.326959829558  0.163176000000
 CRL2   CN1  1  0.338541512893  0.132309697301
 CRL2  CN1T  1  0.338541512893  0.132309697301
 CRL2   CN2  1  0.338541512893  0.132309697301
 CRL2   CN3  1  0.338541512893  0.125520000000
 CRL2  CN3T  1  0.338541512893  0.125520000000
 CRL2   CN4  1  0.338541512893  0.114583559030
 CRL2   CN5  1  0.338541512893  0.114583559030
 CRL2  CN5G  1  0.338541512893  0.114583559030
 CRL2   CN7  1  0.338541512893  0.041840000000
 CRL2  CN7B  1  0.338541512893  0.041840000000
 CRL2   CN8  1  0.338541512893  0.041840000000
 CRL2  CN8B  1  0.338541512893  0.041840000000
 CRL2   CN9  1  0.338541512893  0.041840000000
 CRL2     P  1  0.360813980847  0.320014464673
 CRL2    P2  1  0.360813980847  0.320014464673
 CRL2    P3  1  0.360813980847  0.320014464673
 CRL2    P4  1  0.360813980847  0.320014464673
 CRL2   HOL  1  0.189271432669  0.089736802707
 CRL2  HAL1  1  0.286869387241  0.062058748940
 CRL2  HAL2  1  0.288651184677  0.070011711020
 CRL2  HAL3  1  0.288651184677  0.064818249282
 CRL2   HBL  1  0.286869387241  0.062058748940
 CRL2   HCL  1  0.189271432669  0.089736802707
 CRL2    HL  1  0.231633666716  0.089736802707
 CRL2  HEL1  1  0.280633096214  0.073666921749
 CRL2  HEL2  1  0.281523994932  0.067464972838
 CRL2    CL  1  0.347450500075  0.110698234855
 CRL2   CCL  1  0.347450500075  0.110698234855
 CRL2  CTL1  1  0.338541512893  0.041840000000
 CRL2  CTL2  1  0.338541512893  0.041840000000
 CRL2  CTL3  1  0.338541512893  0.041840000000
 CRL2  CTL5  1  0.338541512893  0.041840000000
 CRL2  CEL1  1  0.355468588538  0.109105371453
 CRL2  CEL2  1  0.354577689820  0.105847757841
 CRL2  CRL1  1  0.338541512893  0.041840000000
 CRL2  CRL2  1  0.338541512893  0.041840000000
 CRL2   OBL  1  0.293996576986  0.144938011577
 CRL2   OCL  1  0.320723538531  0.144938011577
 CRL2   O2L  1  0.320723538531  0.144938011577
 CRL2   OHL  1  0.326959829558  0.163176000000
 CRL2   OSL  1  0.316269044940  0.132309697301
 CRL2  OSLP  1  0.316269044940  0.132309697301
 CRL2  NH3L  1  0.334087019303  0.187114168357
 CRL2   NTL  1  0.334087019303  0.187114168357
 CRL2    SL  1  0.356359487256  0.286840588481
 CRL2    PL  1  0.360813980847  0.320014464673
 CRL2 HCA1A  1  0.288651184677  0.088756043175
 CRL2 HCA2A  1  0.288651184677  0.078275472531
 CRL2 HCA3A  1  0.288651184677  0.064818249282
 CRL2 CC30A  1  0.338541512893  0.041840000000
 CRL2 CC31A  1  0.338541512893  0.041840000000
 CRL2 CC32A  1  0.338541512893  0.041840000000
 CRL2 CC33A  1  0.338541512893  0.041840000000
 CRL2 CC326A  1  0.338541512893  0.041840000000
 CRL2 HCA25A  1  0.285087589805  0.078275472531
 CRL2 CC325A  1  0.338541512893  0.041840000000
 CRL2 CC325B  1  0.338541512893  0.041840000000
 CRL2 OC305A  1  0.316269044940  0.132309697301
 CRL2 OC30A  1  0.316269044940  0.132309697301
 CRL2  HSIO  1  0.189271432669  0.089736802707
 CRL2  HSIA  1  0.286869387241  0.062058748940
 CRL2   HAL  1  0.286869387241  0.062058748940
 CRL2    AL  1  0.365268474438  0.337324864189
 CRL2    SI  1  0.365268474438  0.324091246411
 CRL2  SIH3  1  0.365268474438  0.324091246411
 CRL2  OSIH  1  0.326959829558  0.163176000000
 CRL2  OSIE  1  0.326959829558  0.163176000000
 CRL2  OSIA  1  0.326959829558  0.163176000000
 CRL2   OAL  1  0.326959829558  0.163176000000
 CRL2    HT  1  0.189271432669  0.089736802707
 CRL2    OT  1  0.326799467788  0.163176000000
 CRL2   DUM  1  0.169270756447  0.000000000000
 CRL2    CM  1  0.356359487256  0.138767581228
 CRL2   CPA  1  0.329632525712  0.125520000000
 CRL2   CPB  1  0.329632525712  0.125520000000
 CRL2   CPM  1  0.329632525712  0.125520000000
 CRL2   CST  1  0.308518226092  0.100764063435
 CRL2  CT1X  1  0.338541512893  0.041840000000
 CRL2  CT2X  1  0.338541512893  0.041840000000
 CRL2  CT3X  1  0.338541512893  0.041840000000
 CRL2    HB  1  0.286869387241  0.062058748940
 CRL2   NPH  1  0.334087019303  0.187114168357
 CRL2    OM  1  0.320723538531  0.144938011577
 CRL2   OST  1  0.320010819556  0.169954883425
 CRL2   POT  1  0.326403017859  0.123410269913
 CRL2   CAL  1  0.291056611216  0.144938011577
 CRL2    MG  1  0.274842254546  0.051243325419
 CRL2   CES  1  0.356359487256  0.182376331798
 CRL2    ZN  1  0.266378716724  0.209200000000
 CRL2    FE  1  0.227179173126  0.000000000000
 CRL2    HE  1  0.301123766731  0.061020452073
 CRL2    NE  1  0.305578260322  0.122698965603
 CRL2  CLAL  1  0.339272049842  0.072469005789
 CRL2    AG  1  0.300901042052  0.893457908130
 CRL2    AU  1  0.300722862308  0.962320000000
 CRL2    CU  1  0.285800308779  0.908997471504
 CRL2    NI  1  0.282949432881  0.994525446633
 CRL2    PB  1  0.328073452955  0.716185437439
 CRL2    PD  1  0.294842930769  1.037598257516
 CRL2    PT  1  0.296001099102  1.168527606863
 CRL2   CAP  1  0.346773417049  0.110698234855
 CRL2    FA  1  0.320723538531  0.144938011577
 CRL2    CN  1  0.325178032121  0.187114168357
 CRL2    NC  1  0.334087019303  0.324091246411
 CRL2   OCA  1  0.293996576986  0.144938011577
 CRL2   COA  1  0.347450500075  0.138767581228
 CRL2   CF1  1  0.338541512893  0.102486650838
 CRL2   CF2  1  0.351904993665  0.085746484010
 CRL2   CF3  1  0.374177461619  0.059170695450
 CRL2   HF1  1  0.286869387241  0.070011711020
 CRL2   HF2  1  0.285087589805  0.072469005789
 CRL2    F1  1  0.314487247504  0.153729976257
 CRL2    F2  1  0.314487247504  0.135577095411
 CRL2    F3  1  0.311814551349  0.130309939452
 CRL2    OX  1  0.320723538531  0.144938011577
 CRL2    HX  1  0.189271432669  0.089736802707
 CRL2  HPER  1  0.189271432669  0.089736802707
 CRL2  OPER  1  0.318427692534  0.188901923946
 CRL2   LIT  1  0.284864865125  0.020196198771
 CRL2   RUB  1  0.338541512893  0.162045623205
 CRL2   BAR  1  0.337650614175  0.162045623205
 CRL2   CAD  1  0.290165712498  0.144938011577
 CRL2  ON2B  1  0.326959829558  0.163176000000
 CRL2    SP  1  0.365268474438  0.280671252536
 CRL2   HNP  1  0.290272620344  0.072469005789
 CRL2  HNE1  1  0.280633096214  0.073666921749
 CRL2  HNE2  1  0.281523994932  0.067464972838
 CRL2  CN3D  1  0.338541512893  0.125520000000
 CRL2  CNE1  1  0.355468588538  0.109105371453
 CRL2  CNE2  1  0.354577689820  0.105847757841
 CRL2   CNA  1  0.346773417049  0.110698234855
 CRL2  CNA2  1  0.338541512893  0.110698234855
 CRL2   CNG  1  0.347450500075  0.138767581228
 CRL2  NN1C  1  0.334087019303  0.187114168357
 CRL2  NN2C  1  0.334087019303  0.187114168357
 CRL2  NN3I  1  0.334087019303  0.187114168357
 CRL2   NNG  1  0.334087019303  0.187114168357
 CRL2   FNA  1  0.320723538531  0.144938011577
 CRL2  ON2M  1  0.316269044940  0.132309697301
 CRL2   CN6  1  0.338541512893  0.041840000000
 CRL2  CN7E  1  0.338541512893  0.041840000000
 CRL2  CT2P  1  0.338541512893  0.041840000000
 CRL2  CTD1  1  0.338541512893  0.041840000000
 CRL2  CPD1  1  0.338541512893  0.041840000000
 CRL2  CC1A  1  0.355468588538  0.109105371453
 CRL2  CC1B  1  0.355468588538  0.109105371453
 CRL2   CC2  1  0.354577689820  0.105847757841
 CRL2   NS1  1  0.334087019303  0.187114168357
 CRL2   NS2  1  0.334087019303  0.187114168357
 CRL2   NHL  1  0.307360057758  0.187114168357
 CRL2  CTO1  1  0.338541512893  0.041840000000
 CRL2  CEL3  1  0.355468588538  0.109105371453
 CRL2  CTO2  1  0.338541512893  0.041840000000
 CRL2  HN3B  1  0.249451641079  0.089736802707
 CRL2  CN1A  1  0.347450500075  0.110698234855
 CRL2  CN3A  1  0.329632525712  0.177512086349
 CRL2  CN3B  1  0.329632525712  0.177512086349
 CRL2  CN3C  1  0.329632525712  0.177512086349
  OBL     C  1  0.302905564168  0.480705002262
  OBL    CA  1  0.302228481142  0.383469934154
  OBL    CC  1  0.302905564168  0.383469934154
  OBL    CD  1  0.302905564168  0.383469934154
  OBL   CE1  1  0.310923652631  0.377952093472
  OBL   CE2  1  0.310032753913  0.366667388896
  OBL   CP1  1  0.293996576986  0.144938011577
  OBL   CP2  1  0.293996576986  0.144938011577
  OBL   CP3  1  0.293996576986  0.144938011577
  OBL  CPH1  1  0.285087589805  0.324091246411
  OBL  CPH2  1  0.285087589805  0.324091246411
  OBL    CS  1  0.320723538531  0.480705002262
  OBL   CPT  1  0.290432982114  0.456036806936
  OBL    CY  1  0.302014665450  0.391600943002
  OBL   CAI  1  0.302014665450  0.391600943002
  OBL    CT  1  0.293996576986  0.144938011577
  OBL   CT1  1  0.293996576986  0.144938011577
  OBL   CT2  1  0.293996576986  0.144938011577
  OBL  CT2A  1  0.293996576986  0.144938011577
  OBL   CT3  1  0.293996576986  0.144938011577
  OBL    C3  1  0.327405278917  0.204973301676
  OBL     H  1  0.144726496762  0.310857403193
  OBL    HA  1  0.242324451334  0.214977812437
  OBL   HB1  1  0.242324451334  0.214977812437
  OBL   HB2  1  0.244106248770  0.242527681224
  OBL   HE1  1  0.236088160307  0.255189702614
  OBL   HE2  1  0.236979059025  0.233705521373
  OBL    HC  1  0.144726496762  0.310857403193
  OBL    HP  1  0.245727684437  0.251040000000
  OBL   HR1  1  0.204906705172  0.310857403193
  OBL   HR2  1  0.187088730809  0.310857403193
  OBL   HR3  1  0.255509752363  0.128005785869
  OBL    HS  1  0.164816262856  0.458334236120
  OBL   HA1  1  0.244106248770  0.307459952514
  OBL   HA2  1  0.244106248770  0.267252488258
  OBL   HA3  1  0.244106248770  0.224537002029
  OBL     N  1  0.289542083396  0.014493801158
  OBL   NC2  1  0.289542083396  0.648182492821
  OBL   NH1  1  0.262815121851  0.648182492821
  OBL   NH2  1  0.289542083396  0.648182492821
  OBL   NH3  1  0.289542083396  0.648182492821
  OBL    NP  1  0.289542083396  0.648182492821
  OBL   NR1  1  0.289542083396  0.648182492821
  OBL   NR2  1  0.289542083396  0.648182492821
  OBL   NR3  1  0.289542083396  0.648182492821
  OBL    NY  1  0.289542083396  0.648182492821
  OBL     O  1  0.249451641079  0.502080000000
  OBL    OB  1  0.249451641079  0.502080000000
  OBL    OC  1  0.276178602624  0.502080000000
  OBL   OH1  1  0.282414893650  0.565258245152
  OBL    OS  1  0.282414893650  0.565258245152
  OBL     S  1  0.302905564168  0.972273739232
  OBL    SM  1  0.300678317372  0.893457908130
  OBL    SS  1  0.320723538531  0.993644945843
  OBL  HGA1  1  0.244106248770  0.307459952514
  OBL  HGA2  1  0.244106248770  0.271154190821
  OBL  HGA3  1  0.244106248770  0.224537002029
  OBL  HGA4  1  0.236088160307  0.255189702614
  OBL  HGA5  1  0.236979059025  0.233705521373
  OBL  HGA6  1  0.242324451334  0.242527681224
  OBL  HGA7  1  0.240542653898  0.251040000000
  OBL HGAAM0  1  0.238760856462  0.242527681224
  OBL HGAAM1  1  0.238760856462  0.242527681224
  OBL HGAAM2  1  0.236979059025  0.289876023155
  OBL  HGP1  1  0.144726496762  0.310857403193
  OBL  HGP2  1  0.144726496762  0.310857403193
  OBL  HGP3  1  0.164816262856  0.458334236120
  OBL  HGP4  1  0.144726496762  0.310857403193
  OBL  HGP5  1  0.187088730809  0.310857403193
  OBL HGPAM1  1  0.202679458377  0.137500270836
  OBL HGPAM2  1  0.202679458377  0.144938011577
  OBL HGPAM3  1  0.202234009018  0.158771636762
  OBL HGR51  1  0.245727684437  0.251040000000
  OBL HGR52  1  0.204906705172  0.310857403193
  OBL HGR53  1  0.187088730809  0.310857403193
  OBL HGR61  1  0.245727684437  0.251040000000
  OBL HGR62  1  0.222724679535  0.310857403193
  OBL HGR63  1  0.204906705172  0.310857403193
  OBL HGR71  1  0.245727684437  0.251040000000
  OBL HGTIP3  1  0.144726496762  0.310857403193
  OBL CG1T1  1  0.288651184677  0.592298365893
  OBL CG1T2  1  0.302237390129  0.465609837422
  OBL CG1N1  1  0.291323880832  0.614919905028
  OBL CG2D1  1  0.310923652631  0.377952093472
  OBL CG2D2  1  0.310032753913  0.366667388896
  OBL CG2D1O  1  0.310923652631  0.377952093472
  OBL CG2D2O  1  0.310923652631  0.377952093472
  OBL CG2DC1  1  0.310923652631  0.377952093472
  OBL CG2DC2  1  0.310923652631  0.377952093472
  OBL CG2DC3  1  0.310032753913  0.366667388896
  OBL CG2N1  1  0.302905564168  0.480705002262
  OBL CG2N2  1  0.302905564168  0.480705002262
  OBL CG2O1  1  0.302905564168  0.480705002262
  OBL CG2O2  1  0.276178602624  0.453727744975
  OBL CG2O3  1  0.302905564168  0.383469934154
  OBL CG2O4  1  0.285087589805  0.355024172698
  OBL CG2O5  1  0.302905564168  0.434814034732
  OBL CG2O6  1  0.302905564168  0.383469934154
  OBL CG2O7  1  0.263973290185  0.349056954894
  OBL CG2R51  1  0.311814551349  0.324091246411
  OBL CG2R52  1  0.320723538531  0.204973301676
  OBL CG2R53  1  0.320723538531  0.204973301676
  OBL CG2R57  1  0.311814551349  0.324091246411
  OBL CG25C1  1  0.310923652631  0.377952093472
  OBL CG25C2  1  0.310923652631  0.377952093472
  OBL CG251O  1  0.310923652631  0.377952093472
  OBL CG252O  1  0.310923652631  0.377952093472
  OBL CG2R61  1  0.302228481142  0.383469934154
  OBL CG2R62  1  0.293996576986  0.434814034732
  OBL CG2R63  1  0.293996576986  0.458334236120
  OBL CG2R64  1  0.311814551349  0.289876023155
  OBL CG2R66  1  0.293996576986  0.383469934154
  OBL CG2R67  1  0.302228481142  0.383469934154
  OBL CG2RC0  1  0.290432982114  0.456036806936
  OBL CG2R71  1  0.302442296834  0.375162741007
  OBL CG2RC7  1  0.290432982114  0.456036806936
  OBL CG301  1  0.293996576986  0.144938011577
  OBL CG302  1  0.329632525712  0.204973301676
  OBL CG311  1  0.293996576986  0.144938011577
  OBL CG312  1  0.307360057758  0.297034533750
  OBL CG314  1  0.293996576986  0.144938011577
  OBL CG321  1  0.293996576986  0.144938011577
  OBL CG322  1  0.293996576986  0.355024172698
  OBL CG323  1  0.320723538531  0.480705002262
  OBL CG324  1  0.293996576986  0.144938011577
  OBL CG331  1  0.293996576986  0.144938011577
  OBL CG334  1  0.293996576986  0.144938011577
  OBL CG3C50  1  0.293996576986  0.144938011577
  OBL CG3C51  1  0.293996576986  0.144938011577
  OBL CG3C52  1  0.293996576986  0.144938011577
  OBL CG3C53  1  0.293996576986  0.144938011577
  OBL CG3C54  1  0.293996576986  0.144938011577
  OBL CG3C31  1  0.293996576986  0.144938011577
  OBL CG3C41  1  0.293996576986  0.144938011577
  OBL CG3RC1  1  0.293996576986  0.144938011577
  OBL CG3AM0  1  0.300232868013  0.383469934154
  OBL CG3AM1  1  0.301123766731  0.404789837027
  OBL CG3AM2  1  0.302014665450  0.409946603352
  OBL NG1T1  1  0.284196691087  0.614919905028
  OBL NG2D1  1  0.289542083396  0.648182492821
  OBL NG2S0  1  0.289542083396  0.014493801158
  OBL NG2S1  1  0.262815121851  0.648182492821
  OBL NG2S2  1  0.289542083396  0.648182492821
  OBL NG2S3  1  0.289542083396  0.648182492821
  OBL NG2O1  1  0.289542083396  0.648182492821
  OBL NG2P1  1  0.289542083396  0.648182492821
  OBL NG2R43  1  0.289542083396  0.648182492821
  OBL NG2R50  1  0.289542083396  0.648182492821
  OBL NG2R51  1  0.289542083396  0.648182492821
  OBL NG2R52  1  0.289542083396  0.648182492821
  OBL NG2R53  1  0.289542083396  0.648182492821
  OBL NG2R57  1  0.289542083396  0.648182492821
  OBL NG2R60  1  0.293105678268  0.355024172698
  OBL NG2R61  1  0.289542083396  0.648182492821
  OBL NG2R62  1  0.308250956477  0.324091246411
  OBL NG2R67  1  0.289542083396  0.648182492821
  OBL NG2RC0  1  0.289542083396  0.648182492821
  OBL NG301  1  0.302905564168  0.271154190821
  OBL NG311  1  0.302905564168  0.307459952514
  OBL NG321  1  0.302014665450  0.355024172698
  OBL NG331  1  0.301123766731  0.383469934154
  OBL NG3C51  1  0.289542083396  0.648182492821
  OBL NG3N1  1  0.307360057758  0.355024172698
  OBL NG3P0  1  0.289542083396  0.648182492821
  OBL NG3P1  1  0.289542083396  0.648182492821
  OBL NG3P2  1  0.289542083396  0.648182492821
  OBL NG3P3  1  0.289542083396  0.648182492821
  OBL OG2D1  1  0.249451641079  0.502080000000
  OBL OG2D2  1  0.276178602624  0.502080000000
  OBL OG2D3  1  0.249451641079  0.502080000000
  OBL OG2D4  1  0.276178602624  0.502080000000
  OBL OG2D5  1  0.275465883649  0.588740986173
  OBL OG2N1  1  0.276178602624  0.502080000000
  OBL OG2P1  1  0.276178602624  0.502080000000
  OBL OG2R50  1  0.276178602624  0.502080000000
  OBL OG3R60  1  0.271724109033  0.458334236120
  OBL OG301  1  0.271724109033  0.458334236120
  OBL OG302  1  0.271724109033  0.458334236120
  OBL OG303  1  0.271724109033  0.458334236120
  OBL OG304  1  0.271724109033  0.458334236120
  OBL OG311  1  0.281969444291  0.635251912639
  OBL OG312  1  0.280633096214  0.502080000000
  OBL OG3C31  1  0.271724109033  0.458334236120
  OBL OG3C51  1  0.271724109033  0.458334236120
  OBL OG3C61  1  0.271724109033  0.458334236120
  OBL OGTIP3  1  0.282254531881  0.565258245152
  OBL SG2D1  1  0.307360057758  1.089448042267
  OBL SG2R50  1  0.302905564168  0.972273739232
  OBL SG311  1  0.302905564168  0.972273739232
  OBL SG301  1  0.300678317372  0.893457908130
  OBL SG302  1  0.320723538531  0.993644945843
  OBL SG3O1  1  0.311814551349  0.993644945843
  OBL SG3O2  1  0.302905564168  0.857464840095
  OBL SG3O3  1  0.302905564168  0.857464840095
  OBL  FGA1  1  0.269942311597  0.532536259047
  OBL  FGA2  1  0.269942311597  0.469652835188
  OBL  FGA3  1  0.267269615442  0.451406871724
  OBL  FGP1  1  0.267269615442  0.451406871724
  OBL  FGR1  1  0.276178602624  0.502080000000
  OBL CLGA1  1  0.294887475704  0.848846884285
  OBL CLGA3  1  0.294887475704  0.806980695680
  OBL BRGA1  1  0.300232868013  1.004160000000
  OBL BRGA2  1  0.307360057758  1.055164651417
  OBL BRGA3  1  0.302905564168  1.065072518094
  OBL   SOD  1  0.250409357201  0.313883668846
  OBL   CLA  1  0.326959829558  0.561342505072
  OBL   PG0  1  0.316269044940  1.108562623941
  OBL   PG1  1  0.316269044940  1.108562623941
  OBL   PG2  1  0.316269044940  1.108562623941
  OBL  ALG1  1  0.302905564168  1.168527606863
  OBL   LPH  1  0.124725820540  0.000000000000
  OBL CLGR1  1  0.290432982114  0.695098284849
  OBL BRGR1  1  0.301123766731  0.819893206704
  OBL  IGR1  1  0.324287133403  1.045162865012
  OBL SG2P1  1  0.311253285157  1.151139989652
  OBL OG2S1  1  0.274361169238  0.546744910407
  OBL SG2P2  1  0.307769871169  1.141151004963
  OBL SEGD1  1  0.318496291735  1.144000784335
  OBL BG201  1  0.351904993665  0.282536198318
  OBL CC301  1  0.293996576986  0.144938011577
  OBL CC3062  1  0.293996576986  0.144938011577
  OBL CC311  1  0.293996576986  0.144938011577
  OBL CC3161  1  0.293996576986  0.144938011577
  OBL CC3162  1  0.293996576986  0.144938011577
  OBL CC3163  1  0.293996576986  0.144938011577
  OBL CC321  1  0.293996576986  0.144938011577
  OBL CC3261  1  0.293996576986  0.144938011577
  OBL CC3263  1  0.293996576986  0.144938011577
  OBL CC331  1  0.293996576986  0.144938011577
  OBL CC2O1  1  0.302905564168  0.480705002262
  OBL CC2O2  1  0.302905564168  0.383469934154
  OBL CC2O3  1  0.302905564168  0.434814034732
  OBL CC2O4  1  0.285087589805  0.355024172698
  OBL CC2O5  1  0.276178602624  0.453727744975
  OBL OC2D1  1  0.249451641079  0.502080000000
  OBL OC2D2  1  0.276178602624  0.502080000000
  OBL OC2D3  1  0.249451641079  0.502080000000
  OBL OC2D4  1  0.249451641079  0.502080000000
  OBL OC3C61  1  0.271724109033  0.458334236120
  OBL OC311  1  0.281969444291  0.635251912639
  OBL NC2D1  1  0.262815121851  0.648182492821
  OBL  HCP1  1  0.144726496762  0.310857403193
  OBL  HCA1  1  0.244106248770  0.307459952514
  OBL  HCA2  1  0.244106248770  0.271154190821
  OBL  HCA3  1  0.244106248770  0.224537002029
  OBL CC312  1  0.293996576986  0.144938011577
  OBL CC322  1  0.293996576986  0.144938011577
  OBL  HCR1  1  0.195997717991  0.310857403193
  OBL HCA3M  1  0.244106248770  0.224537002029
  OBL CC321C  1  0.293996576986  0.144938011577
  OBL CC321D  1  0.293996576986  0.144938011577
  OBL CC311C  1  0.293996576986  0.144938011577
  OBL CC311D  1  0.293996576986  0.144938011577
  OBL OC301  1  0.271724109033  0.458334236120
  OBL OC302  1  0.271724109033  0.458334236120
  OBL HCP1M  1  0.144726496762  0.310857403193
  OBL OC311M  1  0.281969444291  0.635251912639
  OBL OC3C5M  1  0.271724109033  0.458334236120
  OBL CC322C  1  0.293996576986  0.144938011577
  OBL HCA2C2  1  0.240542653898  0.271154190821
  OBL CC312C  1  0.293996576986  0.144938011577
  OBL HCA1C2  1  0.244106248770  0.307459952514
  OBL OC3C51  1  0.271724109033  0.458334236120
  OBL CC3152  1  0.293996576986  0.144938011577
  OBL CC3051  1  0.293996576986  0.144938011577
  OBL CC3251  1  0.293996576986  0.144938011577
  OBL CC3151  1  0.293996576986  0.144938011577
  OBL CC3153  1  0.293996576986  0.144938011577
  OBL OC2DP  1  0.276178602624  0.502080000000
  OBL OC312  1  0.282414893650  0.565258245152
  OBL OC30P  1  0.282414893650  0.565258245152
  OBL    PC  1  0.316269044940  1.108562623941
  OBL    SC  1  0.311814551349  0.993644945843
  OBL CC312D  1  0.293996576986  0.144938011577
  OBL OC303  1  0.271724109033  0.458334236120
  OBL NC311  1  0.302905564168  0.307459952514
  OBL   HN1  1  0.144726496762  0.310857403193
  OBL   HN2  1  0.144726496762  0.310857403193
  OBL   HN3  1  0.222724679535  0.310857403193
  OBL   HN4  1  0.144726496762  0.310857403193
  OBL   HN5  1  0.144726496762  0.310857403193
  OBL   HN6  1  0.242324451334  0.214977812437
  OBL   HN7  1  0.242324451334  0.214977812437
  OBL   HN8  1  0.244106248770  0.242527681224
  OBL   HN9  1  0.244106248770  0.224537002029
  OBL   NN1  1  0.289542083396  0.648182492821
  OBL   NN2  1  0.289542083396  0.648182492821
  OBL  NN2B  1  0.289542083396  0.648182492821
  OBL  NN2G  1  0.289542083396  0.648182492821
  OBL  NN2U  1  0.289542083396  0.648182492821
  OBL   NN3  1  0.289542083396  0.648182492821
  OBL  NN3A  1  0.289542083396  0.648182492821
  OBL  NN3G  1  0.289542083396  0.648182492821
  OBL   NN4  1  0.289542083396  0.648182492821
  OBL   NN6  1  0.289542083396  0.648182492821
  OBL   ON1  1  0.276178602624  0.502080000000
  OBL  ON1C  1  0.276178602624  0.502080000000
  OBL   ON2  1  0.282414893650  0.565258245152
  OBL   ON3  1  0.276178602624  0.502080000000
  OBL   ON4  1  0.282414893650  0.565258245152
  OBL   ON5  1  0.282414893650  0.565258245152
  OBL   ON6  1  0.282414893650  0.565258245152
  OBL  ON6B  1  0.282414893650  0.565258245152
  OBL   CN1  1  0.293996576986  0.458334236120
  OBL  CN1T  1  0.293996576986  0.458334236120
  OBL   CN2  1  0.293996576986  0.458334236120
  OBL   CN3  1  0.293996576986  0.434814034732
  OBL  CN3T  1  0.293996576986  0.434814034732
  OBL   CN4  1  0.293996576986  0.396929091904
  OBL   CN5  1  0.293996576986  0.396929091904
  OBL  CN5G  1  0.293996576986  0.396929091904
  OBL   CN7  1  0.293996576986  0.144938011577
  OBL  CN7B  1  0.293996576986  0.144938011577
  OBL   CN8  1  0.293996576986  0.144938011577
  OBL  CN8B  1  0.293996576986  0.144938011577
  OBL   CN9  1  0.293996576986  0.144938011577
  OBL     P  1  0.316269044940  1.108562623941
  OBL    P2  1  0.316269044940  1.108562623941
  OBL    P3  1  0.316269044940  1.108562623941
  OBL    P4  1  0.316269044940  1.108562623941
  OBL   HOL  1  0.144726496762  0.310857403193
  OBL  HAL1  1  0.242324451334  0.214977812437
  OBL  HAL2  1  0.244106248770  0.242527681224
  OBL  HAL3  1  0.244106248770  0.224537002029
  OBL   HBL  1  0.242324451334  0.214977812437
  OBL   HCL  1  0.144726496762  0.310857403193
  OBL    HL  1  0.187088730809  0.310857403193
  OBL  HEL1  1  0.236088160307  0.255189702614
  OBL  HEL2  1  0.236979059025  0.233705521373
  OBL    CL  1  0.302905564168  0.383469934154
  OBL   CCL  1  0.302905564168  0.383469934154
  OBL  CTL1  1  0.293996576986  0.144938011577
  OBL  CTL2  1  0.293996576986  0.144938011577
  OBL  CTL3  1  0.293996576986  0.144938011577
  OBL  CTL5  1  0.293996576986  0.144938011577
  OBL  CEL1  1  0.310923652631  0.377952093472
  OBL  CEL2  1  0.310032753913  0.366667388896
  OBL  CRL1  1  0.293996576986  0.144938011577
  OBL  CRL2  1  0.293996576986  0.144938011577
  OBL   OBL  1  0.249451641079  0.502080000000
  OBL   OCL  1  0.276178602624  0.502080000000
  OBL   O2L  1  0.276178602624  0.502080000000
  OBL   OHL  1  0.282414893650  0.565258245152
  OBL   OSL  1  0.271724109033  0.458334236120
  OBL  OSLP  1  0.271724109033  0.458334236120
  OBL  NH3L  1  0.289542083396  0.648182492821
  OBL   NTL  1  0.289542083396  0.648182492821
  OBL    SL  1  0.311814551349  0.993644945843
  OBL    PL  1  0.316269044940  1.108562623941
  OBL HCA1A  1  0.244106248770  0.307459952514
  OBL HCA2A  1  0.244106248770  0.271154190821
  OBL HCA3A  1  0.244106248770  0.224537002029
  OBL CC30A  1  0.293996576986  0.144938011577
  OBL CC31A  1  0.293996576986  0.144938011577
  OBL CC32A  1  0.293996576986  0.144938011577
  OBL CC33A  1  0.293996576986  0.144938011577
  OBL CC326A  1  0.293996576986  0.144938011577
  OBL HCA25A  1  0.240542653898  0.271154190821
  OBL CC325A  1  0.293996576986  0.144938011577
  OBL CC325B  1  0.293996576986  0.144938011577
  OBL OC305A  1  0.271724109033  0.458334236120
  OBL OC30A  1  0.271724109033  0.458334236120
  OBL  HSIO  1  0.144726496762  0.310857403193
  OBL  HSIA  1  0.242324451334  0.214977812437
  OBL   HAL  1  0.242324451334  0.214977812437
  OBL    AL  1  0.320723538531  1.168527606863
  OBL    SI  1  0.320723538531  1.122685010143
  OBL  SIH3  1  0.320723538531  1.122685010143
  OBL  OSIH  1  0.282414893650  0.565258245152
  OBL  OSIE  1  0.282414893650  0.565258245152
  OBL  OSIA  1  0.282414893650  0.565258245152
  OBL   OAL  1  0.282414893650  0.565258245152
  OBL    HT  1  0.144726496762  0.310857403193
  OBL    OT  1  0.282254531881  0.565258245152
  OBL   DUM  1  0.124725820540  0.000000000000
  OBL    CM  1  0.311814551349  0.480705002262
  OBL   CPA  1  0.285087589805  0.434814034732
  OBL   CPB  1  0.285087589805  0.434814034732
  OBL   CPM  1  0.285087589805  0.434814034732
  OBL   CST  1  0.263973290185  0.349056954894
  OBL  CT1X  1  0.293996576986  0.144938011577
  OBL  CT2X  1  0.293996576986  0.144938011577
  OBL  CT3X  1  0.293996576986  0.144938011577
  OBL    HB  1  0.242324451334  0.214977812437
  OBL   NPH  1  0.289542083396  0.648182492821
  OBL    OM  1  0.276178602624  0.502080000000
  OBL   OST  1  0.275465883649  0.588740986173
  OBL   POT  1  0.281858081952  0.427505715330
  OBL   CAL  1  0.246511675309  0.502080000000
  OBL    MG  1  0.230297318639  0.177512086349
  OBL   CES  1  0.311814551349  0.631770145543
  OBL    ZN  1  0.221833780817  0.724690057887
  OBL    FE  1  0.182634237219  0.000000000000
  OBL    HE  1  0.256578830824  0.211381046583
  OBL    NE  1  0.261033324415  0.425041684920
  OBL  CLAL  1  0.294727113935  0.251040000000
  OBL    AG  1  0.256356106145  3.095028982611
  OBL    AU  1  0.256177926401  3.333574266279
  OBL    CU  1  0.241255372872  3.148859609192
  OBL    NI  1  0.238404496974  3.445137205976
  OBL    PB  1  0.283528517048  2.480939130571
  OBL    PD  1  0.250297994862  3.594345799725
  OBL    PT  1  0.251456163195  4.047898370266
  OBL   CAP  1  0.302228481142  0.383469934154
  OBL    FA  1  0.276178602624  0.502080000000
  OBL    CN  1  0.280633096214  0.648182492821
  OBL    NC  1  0.289542083396  1.122685010143
  OBL   OCA  1  0.249451641079  0.502080000000
  OBL   COA  1  0.302905564168  0.480705002262
  OBL   CF1  1  0.293996576986  0.355024172698
  OBL   CF2  1  0.307360057758  0.297034533750
  OBL   CF3  1  0.329632525712  0.204973301676
  OBL   HF1  1  0.242324451334  0.242527681224
  OBL   HF2  1  0.240542653898  0.251040000000
  OBL    F1  1  0.269942311597  0.532536259047
  OBL    F2  1  0.269942311597  0.469652835188
  OBL    F3  1  0.267269615442  0.451406871724
  OBL    OX  1  0.276178602624  0.502080000000
  OBL    HX  1  0.144726496762  0.310857403193
  OBL  HPER  1  0.144726496762  0.310857403193
  OBL  OPER  1  0.273882756627  0.654375459843
  OBL   LIT  1  0.240319929218  0.069961684782
  OBL   RUB  1  0.293996576986  0.561342505072
  OBL   BAR  1  0.293105678268  0.561342505072
  OBL   CAD  1  0.245620776591  0.502080000000
  OBL  ON2B  1  0.282414893650  0.565258245152
  OBL    SP  1  0.320723538531  0.972273739232
  OBL   HNP  1  0.245727684437  0.251040000000
  OBL  HNE1  1  0.236088160307  0.255189702614
  OBL  HNE2  1  0.236979059025  0.233705521373
  OBL  CN3D  1  0.293996576986  0.434814034732
  OBL  CNE1  1  0.310923652631  0.377952093472
  OBL  CNE2  1  0.310032753913  0.366667388896
  OBL   CNA  1  0.302228481142  0.383469934154
  OBL  CNA2  1  0.293996576986  0.383469934154
  OBL   CNG  1  0.302905564168  0.480705002262
  OBL  NN1C  1  0.289542083396  0.648182492821
  OBL  NN2C  1  0.289542083396  0.648182492821
  OBL  NN3I  1  0.289542083396  0.648182492821
  OBL   NNG  1  0.289542083396  0.648182492821
  OBL   FNA  1  0.276178602624  0.502080000000
  OBL  ON2M  1  0.271724109033  0.458334236120
  OBL   CN6  1  0.293996576986  0.144938011577
  OBL  CN7E  1  0.293996576986  0.144938011577
  OBL  CT2P  1  0.293996576986  0.144938011577
  OBL  CTD1  1  0.293996576986  0.144938011577
  OBL  CPD1  1  0.293996576986  0.144938011577
  OBL  CC1A  1  0.310923652631  0.377952093472
  OBL  CC1B  1  0.310923652631  0.377952093472
  OBL   CC2  1  0.310032753913  0.366667388896
  OBL   NS1  1  0.289542083396  0.648182492821
  OBL   NS2  1  0.289542083396  0.648182492821
  OBL   NHL  1  0.262815121851  0.648182492821
  OBL  CTO1  1  0.293996576986  0.144938011577
  OBL  CEL3  1  0.310923652631  0.377952093472
  OBL  CTO2  1  0.293996576986  0.144938011577
  OBL  HN3B  1  0.204906705172  0.310857403193
  OBL  CN1A  1  0.302905564168  0.383469934154
  OBL  CN3A  1  0.285087589805  0.614919905028
  OBL  CN3B  1  0.285087589805  0.614919905028
  OBL  CN3C  1  0.285087589805  0.614919905028
CC30A     C  1  0.347450500075  0.138767581228
CC30A    CA  1  0.346773417049  0.110698234855
CC30A    CC  1  0.347450500075  0.110698234855
CC30A    CD  1  0.347450500075  0.110698234855
CC30A   CE1  1  0.355468588538  0.109105371453
CC30A   CE2  1  0.354577689820  0.105847757841
CC30A   CP1  1  0.338541512893  0.041840000000
CC30A   CP2  1  0.338541512893  0.041840000000
CC30A   CP3  1  0.338541512893  0.041840000000
CC30A  CPH1  1  0.329632525712  0.093557084179
CC30A  CPH2  1  0.329632525712  0.093557084179
CC30A    CS  1  0.365268474438  0.138767581228
CC30A   CPT  1  0.334977918021  0.131646486622
CC30A    CY  1  0.346559601357  0.113045454929
CC30A   CAI  1  0.346559601357  0.113045454929
CC30A    CT  1  0.338541512893  0.041840000000
CC30A   CT1  1  0.338541512893  0.041840000000
CC30A   CT2  1  0.338541512893  0.041840000000
CC30A  CT2A  1  0.338541512893  0.041840000000
CC30A   CT3  1  0.338541512893  0.041840000000
CC30A    C3  1  0.371950214824  0.059170695450
CC30A     H  1  0.189271432669  0.089736802707
CC30A    HA  1  0.286869387241  0.062058748940
CC30A   HB1  1  0.286869387241  0.062058748940
CC30A   HB2  1  0.288651184677  0.070011711020
CC30A   HE1  1  0.280633096214  0.073666921749
CC30A   HE2  1  0.281523994932  0.067464972838
CC30A    HC  1  0.189271432669  0.089736802707
CC30A    HP  1  0.290272620344  0.072469005789
CC30A   HR1  1  0.249451641079  0.089736802707
CC30A   HR2  1  0.231633666716  0.089736802707
CC30A   HR3  1  0.300054688270  0.036952087465
CC30A    HS  1  0.209361198763  0.132309697301
CC30A   HA1  1  0.288651184677  0.088756043175
CC30A   HA2  1  0.288651184677  0.077149148019
CC30A   HA3  1  0.288651184677  0.064818249282
CC30A     N  1  0.334087019303  0.004184000000
CC30A   NC2  1  0.334087019303  0.187114168357
CC30A   NH1  1  0.307360057758  0.187114168357
CC30A   NH2  1  0.334087019303  0.187114168357
CC30A   NH3  1  0.334087019303  0.187114168357
CC30A    NP  1  0.334087019303  0.187114168357
CC30A   NR1  1  0.334087019303  0.187114168357
CC30A   NR2  1  0.334087019303  0.187114168357
CC30A   NR3  1  0.334087019303  0.187114168357
CC30A    NY  1  0.334087019303  0.187114168357
CC30A     O  1  0.293996576986  0.144938011577
CC30A    OB  1  0.293996576986  0.144938011577
CC30A    OC  1  0.320723538531  0.144938011577
CC30A   OH1  1  0.326959829558  0.163176000000
CC30A    OS  1  0.326959829558  0.163176000000
CC30A     S  1  0.347450500075  0.280671252536
CC30A    SM  1  0.345223253279  0.257919081884
CC30A    SS  1  0.365268474438  0.286840588481
CC30A  HGA1  1  0.288651184677  0.088756043175
CC30A  HGA2  1  0.288651184677  0.078275472531
CC30A  HGA3  1  0.288651184677  0.064818249282
CC30A  HGA4  1  0.280633096214  0.073666921749
CC30A  HGA5  1  0.281523994932  0.067464972838
CC30A  HGA6  1  0.286869387241  0.070011711020
CC30A  HGA7  1  0.285087589805  0.072469005789
CC30A HGAAM0  1  0.283305792369  0.070011711020
CC30A HGAAM1  1  0.283305792369  0.070011711020
CC30A HGAAM2  1  0.281523994932  0.083680000000
CC30A  HGP1  1  0.189271432669  0.089736802707
CC30A  HGP2  1  0.189271432669  0.089736802707
CC30A  HGP3  1  0.209361198763  0.132309697301
CC30A  HGP4  1  0.189271432669  0.089736802707
CC30A  HGP5  1  0.231633666716  0.089736802707
CC30A HGPAM1  1  0.247224394284  0.039692909190
CC30A HGPAM2  1  0.247224394284  0.041840000000
CC30A HGPAM3  1  0.246778944925  0.045833423612
CC30A HGR51  1  0.290272620344  0.072469005789
CC30A HGR52  1  0.249451641079  0.089736802707
CC30A HGR53  1  0.231633666716  0.089736802707
CC30A HGR61  1  0.290272620344  0.072469005789
CC30A HGR62  1  0.267269615442  0.089736802707
CC30A HGR63  1  0.249451641079  0.089736802707
CC30A HGR71  1  0.290272620344  0.072469005789
CC30A HGTIP3  1  0.189271432669  0.089736802707
CC30A CG1T1  1  0.333196120584  0.170981810495
CC30A CG1T2  1  0.346782326036  0.134409982486
CC30A CG1N1  1  0.335868816739  0.177512086349
CC30A CG2D1  1  0.355468588538  0.109105371453
CC30A CG2D2  1  0.354577689820  0.105847757841
CC30A CG2D1O  1  0.355468588538  0.109105371453
CC30A CG2D2O  1  0.355468588538  0.109105371453
CC30A CG2DC1  1  0.355468588538  0.109105371453
CC30A CG2DC2  1  0.355468588538  0.109105371453
CC30A CG2DC3  1  0.354577689820  0.105847757841
CC30A CG2N1  1  0.347450500075  0.138767581228
CC30A CG2N2  1  0.347450500075  0.138767581228
CC30A CG2O1  1  0.347450500075  0.138767581228
CC30A CG2O2  1  0.320723538531  0.130979917850
CC30A CG2O3  1  0.347450500075  0.110698234855
CC30A CG2O4  1  0.329632525712  0.102486650838
CC30A CG2O5  1  0.347450500075  0.125520000000
CC30A CG2O6  1  0.347450500075  0.110698234855
CC30A CG2O7  1  0.308518226092  0.100764063435
CC30A CG2R51  1  0.356359487256  0.093557084179
CC30A CG2R52  1  0.365268474438  0.059170695450
CC30A CG2R53  1  0.365268474438  0.059170695450
CC30A CG2R57  1  0.356359487256  0.093557084179
CC30A CG25C1  1  0.355468588538  0.109105371453
CC30A CG25C2  1  0.355468588538  0.109105371453
CC30A CG251O  1  0.355468588538  0.109105371453
CC30A CG252O  1  0.355468588538  0.109105371453
CC30A CG2R61  1  0.346773417049  0.110698234855
CC30A CG2R62  1  0.338541512893  0.125520000000
CC30A CG2R63  1  0.338541512893  0.132309697301
CC30A CG2R64  1  0.356359487256  0.083680000000
CC30A CG2R66  1  0.338541512893  0.110698234855
CC30A CG2R67  1  0.346773417049  0.110698234855
CC30A CG2RC0  1  0.334977918021  0.131646486622
CC30A CG2R71  1  0.346987232741  0.108300154755
CC30A CG2RC7  1  0.334977918021  0.131646486622
CC30A CG301  1  0.338541512893  0.041840000000
CC30A CG302  1  0.374177461619  0.059170695450
CC30A CG311  1  0.338541512893  0.041840000000
CC30A CG312  1  0.351904993665  0.085746484010
CC30A CG314  1  0.338541512893  0.041840000000
CC30A CG321  1  0.338541512893  0.041840000000
CC30A CG322  1  0.338541512893  0.102486650838
CC30A CG323  1  0.365268474438  0.138767581228
CC30A CG324  1  0.338541512893  0.041840000000
CC30A CG331  1  0.338541512893  0.041840000000
CC30A CG334  1  0.338541512893  0.041840000000
CC30A CG3C50  1  0.338541512893  0.041840000000
CC30A CG3C51  1  0.338541512893  0.041840000000
CC30A CG3C52  1  0.338541512893  0.041840000000
CC30A CG3C53  1  0.338541512893  0.041840000000
CC30A CG3C54  1  0.338541512893  0.041840000000
CC30A CG3C31  1  0.338541512893  0.041840000000
CC30A CG3C41  1  0.338541512893  0.041840000000
CC30A CG3RC1  1  0.338541512893  0.041840000000
CC30A CG3AM0  1  0.344777803920  0.110698234855
CC30A CG3AM1  1  0.345668702638  0.116852760686
CC30A CG3AM2  1  0.346559601357  0.118341390899
CC30A NG1T1  1  0.328741626994  0.177512086349
CC30A NG2D1  1  0.334087019303  0.187114168357
CC30A NG2S0  1  0.334087019303  0.004184000000
CC30A NG2S1  1  0.307360057758  0.187114168357
CC30A NG2S2  1  0.334087019303  0.187114168357
CC30A NG2S3  1  0.334087019303  0.187114168357
CC30A NG2O1  1  0.334087019303  0.187114168357
CC30A NG2P1  1  0.334087019303  0.187114168357
CC30A NG2R43  1  0.334087019303  0.187114168357
CC30A NG2R50  1  0.334087019303  0.187114168357
CC30A NG2R51  1  0.334087019303  0.187114168357
CC30A NG2R52  1  0.334087019303  0.187114168357
CC30A NG2R53  1  0.334087019303  0.187114168357
CC30A NG2R57  1  0.334087019303  0.187114168357
CC30A NG2R60  1  0.337650614175  0.102486650838
CC30A NG2R61  1  0.334087019303  0.187114168357
CC30A NG2R62  1  0.352795892384  0.093557084179
CC30A NG2R67  1  0.334087019303  0.187114168357
CC30A NG2RC0  1  0.334087019303  0.187114168357
CC30A NG301  1  0.347450500075  0.078275472531
CC30A NG311  1  0.347450500075  0.088756043175
CC30A NG321  1  0.346559601357  0.102486650838
CC30A NG331  1  0.345668702638  0.110698234855
CC30A NG3C51  1  0.334087019303  0.187114168357
CC30A NG3N1  1  0.351904993665  0.102486650838
CC30A NG3P0  1  0.334087019303  0.187114168357
CC30A NG3P1  1  0.334087019303  0.187114168357
CC30A NG3P2  1  0.334087019303  0.187114168357
CC30A NG3P3  1  0.334087019303  0.187114168357
CC30A OG2D1  1  0.293996576986  0.144938011577
CC30A OG2D2  1  0.320723538531  0.144938011577
CC30A OG2D3  1  0.293996576986  0.144938011577
CC30A OG2D4  1  0.320723538531  0.144938011577
CC30A OG2D5  1  0.320010819556  0.169954883425
CC30A OG2N1  1  0.320723538531  0.144938011577
CC30A OG2P1  1  0.320723538531  0.144938011577
CC30A OG2R50  1  0.320723538531  0.144938011577
CC30A OG3R60  1  0.316269044940  0.132309697301
CC30A OG301  1  0.316269044940  0.132309697301
CC30A OG302  1  0.316269044940  0.132309697301
CC30A OG303  1  0.316269044940  0.132309697301
CC30A OG304  1  0.316269044940  0.132309697301
CC30A OG311  1  0.326514380198  0.183381431383
CC30A OG312  1  0.325178032121  0.144938011577
CC30A OG3C31  1  0.316269044940  0.132309697301
CC30A OG3C51  1  0.316269044940  0.132309697301
CC30A OG3C61  1  0.316269044940  0.132309697301
CC30A OGTIP3  1  0.326799467788  0.163176000000
CC30A SG2D1  1  0.351904993665  0.314496560236
CC30A SG2R50  1  0.347450500075  0.280671252536
CC30A SG311  1  0.347450500075  0.280671252536
CC30A SG301  1  0.345223253279  0.257919081884
CC30A SG302  1  0.365268474438  0.286840588481
CC30A SG3O1  1  0.356359487256  0.286840588481
CC30A SG3O2  1  0.347450500075  0.247528778125
CC30A SG3O3  1  0.347450500075  0.247528778125
CC30A  FGA1  1  0.314487247504  0.153729976257
CC30A  FGA2  1  0.314487247504  0.135577095411
CC30A  FGA3  1  0.311814551349  0.130309939452
CC30A  FGP1  1  0.311814551349  0.130309939452
CC30A  FGR1  1  0.320723538531  0.144938011577
CC30A CLGA1  1  0.339432411611  0.245040988571
CC30A CLGA3  1  0.339432411611  0.232955260941
CC30A BRGA1  1  0.344777803920  0.289876023155
CC30A BRGA2  1  0.351904993665  0.304599797767
CC30A BRGA3  1  0.347450500075  0.307459952514
CC30A   SOD  1  0.294954293108  0.090610410351
CC30A   CLA  1  0.371504765465  0.162045623205
CC30A   PG0  1  0.360813980847  0.320014464673
CC30A   PG1  1  0.360813980847  0.320014464673
CC30A   PG2  1  0.360813980847  0.320014464673
CC30A  ALG1  1  0.347450500075  0.337324864189
CC30A   LPH  1  0.169270756447  0.000000000000
CC30A CLGR1  1  0.334977918021  0.200657590935
CC30A BRGR1  1  0.345668702638  0.236682781799
CC30A  IGR1  1  0.368832069310  0.301712530731
CC30A SG2P1  1  0.355798221064  0.332305491450
CC30A OG2S1  1  0.318906105146  0.157831660601
CC30A SG2P2  1  0.352314807076  0.329421919951
CC30A SEGD1  1  0.363041227642  0.330244580395
CC30A BG201  1  0.396449929572  0.081561175077
CC30A CC301  1  0.338541512893  0.041840000000
CC30A CC3062  1  0.338541512893  0.041840000000
CC30A CC311  1  0.338541512893  0.041840000000
CC30A CC3161  1  0.338541512893  0.041840000000
CC30A CC3162  1  0.338541512893  0.041840000000
CC30A CC3163  1  0.338541512893  0.041840000000
CC30A CC321  1  0.338541512893  0.041840000000
CC30A CC3261  1  0.338541512893  0.041840000000
CC30A CC3263  1  0.338541512893  0.041840000000
CC30A CC331  1  0.338541512893  0.041840000000
CC30A CC2O1  1  0.347450500075  0.138767581228
CC30A CC2O2  1  0.347450500075  0.110698234855
CC30A CC2O3  1  0.347450500075  0.125520000000
CC30A CC2O4  1  0.329632525712  0.102486650838
CC30A CC2O5  1  0.320723538531  0.130979917850
CC30A OC2D1  1  0.293996576986  0.144938011577
CC30A OC2D2  1  0.320723538531  0.144938011577
CC30A OC2D3  1  0.293996576986  0.144938011577
CC30A OC2D4  1  0.293996576986  0.144938011577
CC30A OC3C61  1  0.316269044940  0.132309697301
CC30A OC311  1  0.326514380198  0.183381431383
CC30A NC2D1  1  0.307360057758  0.187114168357
CC30A  HCP1  1  0.189271432669  0.089736802707
CC30A  HCA1  1  0.288651184677  0.088756043175
CC30A  HCA2  1  0.288651184677  0.078275472531
CC30A  HCA3  1  0.288651184677  0.064818249282
CC30A CC312  1  0.338541512893  0.041840000000
CC30A CC322  1  0.338541512893  0.041840000000
CC30A  HCR1  1  0.240542653898  0.089736802707
CC30A HCA3M  1  0.288651184677  0.064818249282
CC30A CC321C  1  0.338541512893  0.041840000000
CC30A CC321D  1  0.338541512893  0.041840000000
CC30A CC311C  1  0.338541512893  0.041840000000
CC30A CC311D  1  0.338541512893  0.041840000000
CC30A OC301  1  0.316269044940  0.132309697301
CC30A OC302  1  0.316269044940  0.132309697301
CC30A HCP1M  1  0.189271432669  0.089736802707
CC30A OC311M  1  0.326514380198  0.183381431383
CC30A OC3C5M  1  0.316269044940  0.132309697301
CC30A CC322C  1  0.338541512893  0.041840000000
CC30A HCA2C2  1  0.285087589805  0.078275472531
CC30A CC312C  1  0.338541512893  0.041840000000
CC30A HCA1C2  1  0.288651184677  0.088756043175
CC30A OC3C51  1  0.316269044940  0.132309697301
CC30A CC3152  1  0.338541512893  0.041840000000
CC30A CC3051  1  0.338541512893  0.041840000000
CC30A CC3251  1  0.338541512893  0.041840000000
CC30A CC3151  1  0.338541512893  0.041840000000
CC30A CC3153  1  0.338541512893  0.041840000000
CC30A OC2DP  1  0.320723538531  0.144938011577
CC30A OC312  1  0.326959829558  0.163176000000
CC30A OC30P  1  0.326959829558  0.163176000000
CC30A    PC  1  0.360813980847  0.320014464673
CC30A    SC  1  0.356359487256  0.286840588481
CC30A CC312D  1  0.338541512893  0.041840000000
CC30A OC303  1  0.316269044940  0.132309697301
CC30A NC311  1  0.347450500075  0.088756043175
CC30A   HN1  1  0.189271432669  0.089736802707
CC30A   HN2  1  0.189271432669  0.089736802707
CC30A   HN3  1  0.267269615442  0.089736802707
CC30A   HN4  1  0.189271432669  0.089736802707
CC30A   HN5  1  0.189271432669  0.089736802707
CC30A   HN6  1  0.286869387241  0.062058748940
CC30A   HN7  1  0.286869387241  0.062058748940
CC30A   HN8  1  0.288651184677  0.070011711020
CC30A   HN9  1  0.288651184677  0.064818249282
CC30A   NN1  1  0.334087019303  0.187114168357
CC30A   NN2  1  0.334087019303  0.187114168357
CC30A  NN2B  1  0.334087019303  0.187114168357
CC30A  NN2G  1  0.334087019303  0.187114168357
CC30A  NN2U  1  0.334087019303  0.187114168357
CC30A   NN3  1  0.334087019303  0.187114168357
CC30A  NN3A  1  0.334087019303  0.187114168357
CC30A  NN3G  1  0.334087019303  0.187114168357
CC30A   NN4  1  0.334087019303  0.187114168357
CC30A   NN6  1  0.334087019303  0.187114168357
CC30A   ON1  1  0.320723538531  0.144938011577
CC30A  ON1C  1  0.320723538531  0.144938011577
CC30A   ON2  1  0.326959829558  0.163176000000
CC30A   ON3  1  0.320723538531  0.144938011577
CC30A   ON4  1  0.326959829558  0.163176000000
CC30A   ON5  1  0.326959829558  0.163176000000
CC30A   ON6  1  0.326959829558  0.163176000000
CC30A  ON6B  1  0.326959829558  0.163176000000
CC30A   CN1  1  0.338541512893  0.132309697301
CC30A  CN1T  1  0.338541512893  0.132309697301
CC30A   CN2  1  0.338541512893  0.132309697301
CC30A   CN3  1  0.338541512893  0.125520000000
CC30A  CN3T  1  0.338541512893  0.125520000000
CC30A   CN4  1  0.338541512893  0.114583559030
CC30A   CN5  1  0.338541512893  0.114583559030
CC30A  CN5G  1  0.338541512893  0.114583559030
CC30A   CN7  1  0.338541512893  0.041840000000
CC30A  CN7B  1  0.338541512893  0.041840000000
CC30A   CN8  1  0.338541512893  0.041840000000
CC30A  CN8B  1  0.338541512893  0.041840000000
CC30A   CN9  1  0.338541512893  0.041840000000
CC30A     P  1  0.360813980847  0.320014464673
CC30A    P2  1  0.360813980847  0.320014464673
CC30A    P3  1  0.360813980847  0.320014464673
CC30A    P4  1  0.360813980847  0.320014464673
CC30A   HOL  1  0.189271432669  0.089736802707
CC30A  HAL1  1  0.286869387241  0.062058748940
CC30A  HAL2  1  0.288651184677  0.070011711020
CC30A  HAL3  1  0.288651184677  0.064818249282
CC30A   HBL  1  0.286869387241  0.062058748940
CC30A   HCL  1  0.189271432669  0.089736802707
CC30A    HL  1  0.231633666716  0.089736802707
CC30A  HEL1  1  0.280633096214  0.073666921749
CC30A  HEL2  1  0.281523994932  0.067464972838
CC30A    CL  1  0.347450500075  0.110698234855
CC30A   CCL  1  0.347450500075  0.110698234855
CC30A  CTL1  1  0.338541512893  0.041840000000
CC30A  CTL2  1  0.338541512893  0.041840000000
CC30A  CTL3  1  0.338541512893  0.041840000000
CC30A  CTL5  1  0.338541512893  0.041840000000
CC30A  CEL1  1  0.355468588538  0.109105371453
CC30A  CEL2  1  0.354577689820  0.105847757841
CC30A  CRL1  1  0.338541512893  0.041840000000
CC30A  CRL2  1  0.338541512893  0.041840000000
CC30A   OBL  1  0.293996576986  0.144938011577
CC30A   OCL  1  0.320723538531  0.144938011577
CC30A   O2L  1  0.320723538531  0.144938011577
CC30A   OHL  1  0.326959829558  0.163176000000
CC30A   OSL  1  0.316269044940  0.132309697301
CC30A  OSLP  1  0.316269044940  0.132309697301
CC30A  NH3L  1  0.334087019303  0.187114168357
CC30A   NTL  1  0.334087019303  0.187114168357
CC30A    SL  1  0.356359487256  0.286840588481
CC30A    PL  1  0.360813980847  0.320014464673
CC30A HCA1A  1  0.288651184677  0.088756043175
CC30A HCA2A  1  0.288651184677  0.078275472531
CC30A HCA3A  1  0.288651184677  0.064818249282
CC30A CC30A  1  0.338541512893  0.041840000000
CC30A CC31A  1  0.338541512893  0.041840000000
CC30A CC32A  1  0.338541512893  0.041840000000
CC30A CC33A  1  0.338541512893  0.041840000000
CC30A CC326A  1  0.338541512893  0.041840000000
CC30A HCA25A  1  0.285087589805  0.078275472531
CC30A CC325A  1  0.338541512893  0.041840000000
CC30A CC325B  1  0.338541512893  0.041840000000
CC30A OC305A  1  0.316269044940  0.132309697301
CC30A OC30A  1  0.316269044940  0.132309697301
CC30A  HSIO  1  0.189271432669  0.089736802707
CC30A  HSIA  1  0.286869387241  0.062058748940
CC30A   HAL  1  0.286869387241  0.062058748940
CC30A    AL  1  0.365268474438  0.337324864189
CC30A    SI  1  0.365268474438  0.324091246411
CC30A  SIH3  1  0.365268474438  0.324091246411
CC30A  OSIH  1  0.326959829558  0.163176000000
CC30A  OSIE  1  0.326959829558  0.163176000000
CC30A  OSIA  1  0.326959829558  0.163176000000
CC30A   OAL  1  0.326959829558  0.163176000000
CC30A    HT  1  0.189271432669  0.089736802707
CC30A    OT  1  0.326799467788  0.163176000000
CC30A   DUM  1  0.169270756447  0.000000000000
CC30A    CM  1  0.356359487256  0.138767581228
CC30A   CPA  1  0.329632525712  0.125520000000
CC30A   CPB  1  0.329632525712  0.125520000000
CC30A   CPM  1  0.329632525712  0.125520000000
CC30A   CST  1  0.308518226092  0.100764063435
CC30A  CT1X  1  0.338541512893  0.041840000000
CC30A  CT2X  1  0.338541512893  0.041840000000
CC30A  CT3X  1  0.338541512893  0.041840000000
CC30A    HB  1  0.286869387241  0.062058748940
CC30A   NPH  1  0.334087019303  0.187114168357
CC30A    OM  1  0.320723538531  0.144938011577
CC30A   OST  1  0.320010819556  0.169954883425
CC30A   POT  1  0.326403017859  0.123410269913
CC30A   CAL  1  0.291056611216  0.144938011577
CC30A    MG  1  0.274842254546  0.051243325419
CC30A   CES  1  0.356359487256  0.182376331798
CC30A    ZN  1  0.266378716724  0.209200000000
CC30A    FE  1  0.227179173126  0.000000000000
CC30A    HE  1  0.301123766731  0.061020452073
CC30A    NE  1  0.305578260322  0.122698965603
CC30A  CLAL  1  0.339272049842  0.072469005789
CC30A    AG  1  0.300901042052  0.893457908130
CC30A    AU  1  0.300722862308  0.962320000000
CC30A    CU  1  0.285800308779  0.908997471504
CC30A    NI  1  0.282949432881  0.994525446633
CC30A    PB  1  0.328073452955  0.716185437439
CC30A    PD  1  0.294842930769  1.037598257516
CC30A    PT  1  0.296001099102  1.168527606863
CC30A   CAP  1  0.346773417049  0.110698234855
CC30A    FA  1  0.320723538531  0.144938011577
CC30A    CN  1  0.325178032121  0.187114168357
CC30A    NC  1  0.334087019303  0.324091246411
CC30A   OCA  1  0.293996576986  0.144938011577
CC30A   COA  1  0.347450500075  0.138767581228
CC30A   CF1  1  0.338541512893  0.102486650838
CC30A   CF2  1  0.351904993665  0.085746484010
CC30A   CF3  1  0.374177461619  0.059170695450
CC30A   HF1  1  0.286869387241  0.070011711020
CC30A   HF2  1  0.285087589805  0.072469005789
CC30A    F1  1  0.314487247504  0.153729976257
CC30A    F2  1  0.314487247504  0.135577095411
CC30A    F3  1  0.311814551349  0.130309939452
CC30A    OX  1  0.320723538531  0.144938011577
CC30A    HX  1  0.189271432669  0.089736802707
CC30A  HPER  1  0.189271432669  0.089736802707
CC30A  OPER  1  0.318427692534  0.188901923946
CC30A   LIT  1  0.284864865125  0.020196198771
CC30A   RUB  1  0.338541512893  0.162045623205
CC30A   BAR  1  0.337650614175  0.162045623205
CC30A   CAD  1  0.290165712498  0.144938011577
CC30A  ON2B  1  0.326959829558  0.163176000000
CC30A    SP  1  0.365268474438  0.280671252536
CC30A   HNP  1  0.290272620344  0.072469005789
CC30A  HNE1  1  0.280633096214  0.073666921749
CC30A  HNE2  1  0.281523994932  0.067464972838
CC30A  CN3D  1  0.338541512893  0.125520000000
CC30A  CNE1  1  0.355468588538  0.109105371453
CC30A  CNE2  1  0.354577689820  0.105847757841
CC30A   CNA  1  0.346773417049  0.110698234855
CC30A  CNA2  1  0.338541512893  0.110698234855
CC30A   CNG  1  0.347450500075  0.138767581228
CC30A  NN1C  1  0.334087019303  0.187114168357
CC30A  NN2C  1  0.334087019303  0.187114168357
CC30A  NN3I  1  0.334087019303  0.187114168357
CC30A   NNG  1  0.334087019303  0.187114168357
CC30A   FNA  1  0.320723538531  0.144938011577
CC30A  ON2M  1  0.316269044940  0.132309697301
CC30A   CN6  1  0.338541512893  0.041840000000
CC30A  CN7E  1  0.338541512893  0.041840000000
CC30A  CT2P  1  0.338541512893  0.041840000000
CC30A  CTD1  1  0.338541512893  0.041840000000
CC30A  CPD1  1  0.338541512893  0.041840000000
CC30A  CC1A  1  0.355468588538  0.109105371453
CC30A  CC1B  1  0.355468588538  0.109105371453
CC30A   CC2  1  0.354577689820  0.105847757841
CC30A   NS1  1  0.334087019303  0.187114168357
CC30A   NS2  1  0.334087019303  0.187114168357
CC30A   NHL  1  0.307360057758  0.187114168357
CC30A  CTO1  1  0.338541512893  0.041840000000
CC30A  CEL3  1  0.355468588538  0.109105371453
CC30A  CTO2  1  0.338541512893  0.041840000000
CC30A  HN3B  1  0.249451641079  0.089736802707
CC30A  CN1A  1  0.347450500075  0.110698234855
CC30A  CN3A  1  0.329632525712  0.177512086349
CC30A  CN3B  1  0.329632525712  0.177512086349
CC30A  CN3C  1  0.329632525712  0.177512086349
CC31A     C  1  0.347450500075  0.138767581228
CC31A    CA  1  0.346773417049  0.110698234855
CC31A    CC  1  0.347450500075  0.110698234855
CC31A    CD  1  0.347450500075  0.110698234855
CC31A   CE1  1  0.355468588538  0.109105371453
CC31A   CE2  1  0.354577689820  0.105847757841
CC31A   CP1  1  0.338541512893  0.041840000000
CC31A   CP2  1  0.338541512893  0.041840000000
CC31A   CP3  1  0.338541512893  0.041840000000
CC31A  CPH1  1  0.329632525712  0.093557084179
CC31A  CPH2  1  0.329632525712  0.093557084179
CC31A    CS  1  0.365268474438  0.138767581228
CC31A   CPT  1  0.334977918021  0.131646486622
CC31A    CY  1  0.346559601357  0.113045454929
CC31A   CAI  1  0.346559601357  0.113045454929
CC31A    CT  1  0.338541512893  0.041840000000
CC31A   CT1  1  0.338541512893  0.041840000000
CC31A   CT2  1  0.338541512893  0.041840000000
CC31A  CT2A  1  0.338541512893  0.041840000000
CC31A   CT3  1  0.338541512893  0.041840000000
CC31A    C3  1  0.371950214824  0.059170695450
CC31A     H  1  0.189271432669  0.089736802707
CC31A    HA  1  0.286869387241  0.062058748940
CC31A   HB1  1  0.286869387241  0.062058748940
CC31A   HB2  1  0.288651184677  0.070011711020
CC31A   HE1  1  0.280633096214  0.073666921749
CC31A   HE2  1  0.281523994932  0.067464972838
CC31A    HC  1  0.189271432669  0.089736802707
CC31A    HP  1  0.290272620344  0.072469005789
CC31A   HR1  1  0.249451641079  0.089736802707
CC31A   HR2  1  0.231633666716  0.089736802707
CC31A   HR3  1  0.300054688270  0.036952087465
CC31A    HS  1  0.209361198763  0.132309697301
CC31A   HA1  1  0.288651184677  0.088756043175
CC31A   HA2  1  0.288651184677  0.077149148019
CC31A   HA3  1  0.288651184677  0.064818249282
CC31A     N  1  0.334087019303  0.004184000000
CC31A   NC2  1  0.334087019303  0.187114168357
CC31A   NH1  1  0.307360057758  0.187114168357
CC31A   NH2  1  0.334087019303  0.187114168357
CC31A   NH3  1  0.334087019303  0.187114168357
CC31A    NP  1  0.334087019303  0.187114168357
CC31A   NR1  1  0.334087019303  0.187114168357
CC31A   NR2  1  0.334087019303  0.187114168357
CC31A   NR3  1  0.334087019303  0.187114168357
CC31A    NY  1  0.334087019303  0.187114168357
CC31A     O  1  0.293996576986  0.144938011577
CC31A    OB  1  0.293996576986  0.144938011577
CC31A    OC  1  0.320723538531  0.144938011577
CC31A   OH1  1  0.326959829558  0.163176000000
CC31A    OS  1  0.326959829558  0.163176000000
CC31A     S  1  0.347450500075  0.280671252536
CC31A    SM  1  0.345223253279  0.257919081884
CC31A    SS  1  0.365268474438  0.286840588481
CC31A  HGA1  1  0.288651184677  0.088756043175
CC31A  HGA2  1  0.288651184677  0.078275472531
CC31A  HGA3  1  0.288651184677  0.064818249282
CC31A  HGA4  1  0.280633096214  0.073666921749
CC31A  HGA5  1  0.281523994932  0.067464972838
CC31A  HGA6  1  0.286869387241  0.070011711020
CC31A  HGA7  1  0.285087589805  0.072469005789
CC31A HGAAM0  1  0.283305792369  0.070011711020
CC31A HGAAM1  1  0.283305792369  0.070011711020
CC31A HGAAM2  1  0.281523994932  0.083680000000
CC31A  HGP1  1  0.189271432669  0.089736802707
CC31A  HGP2  1  0.189271432669  0.089736802707
CC31A  HGP3  1  0.209361198763  0.132309697301
CC31A  HGP4  1  0.189271432669  0.089736802707
CC31A  HGP5  1  0.231633666716  0.089736802707
CC31A HGPAM1  1  0.247224394284  0.039692909190
CC31A HGPAM2  1  0.247224394284  0.041840000000
CC31A HGPAM3  1  0.246778944925  0.045833423612
CC31A HGR51  1  0.290272620344  0.072469005789
CC31A HGR52  1  0.249451641079  0.089736802707
CC31A HGR53  1  0.231633666716  0.089736802707
CC31A HGR61  1  0.290272620344  0.072469005789
CC31A HGR62  1  0.267269615442  0.089736802707
CC31A HGR63  1  0.249451641079  0.089736802707
CC31A HGR71  1  0.290272620344  0.072469005789
CC31A HGTIP3  1  0.189271432669  0.089736802707
CC31A CG1T1  1  0.333196120584  0.170981810495
CC31A CG1T2  1  0.346782326036  0.134409982486
CC31A CG1N1  1  0.335868816739  0.177512086349
CC31A CG2D1  1  0.355468588538  0.109105371453
CC31A CG2D2  1  0.354577689820  0.105847757841
CC31A CG2D1O  1  0.355468588538  0.109105371453
CC31A CG2D2O  1  0.355468588538  0.109105371453
CC31A CG2DC1  1  0.355468588538  0.109105371453
CC31A CG2DC2  1  0.355468588538  0.109105371453
CC31A CG2DC3  1  0.354577689820  0.105847757841
CC31A CG2N1  1  0.347450500075  0.138767581228
CC31A CG2N2  1  0.347450500075  0.138767581228
CC31A CG2O1  1  0.347450500075  0.138767581228
CC31A CG2O2  1  0.320723538531  0.130979917850
CC31A CG2O3  1  0.347450500075  0.110698234855
CC31A CG2O4  1  0.329632525712  0.102486650838
CC31A CG2O5  1  0.347450500075  0.125520000000
CC31A CG2O6  1  0.347450500075  0.110698234855
CC31A CG2O7  1  0.308518226092  0.100764063435
CC31A CG2R51  1  0.356359487256  0.093557084179
CC31A CG2R52  1  0.365268474438  0.059170695450
CC31A CG2R53  1  0.365268474438  0.059170695450
CC31A CG2R57  1  0.356359487256  0.093557084179
CC31A CG25C1  1  0.355468588538  0.109105371453
CC31A CG25C2  1  0.355468588538  0.109105371453
CC31A CG251O  1  0.355468588538  0.109105371453
CC31A CG252O  1  0.355468588538  0.109105371453
CC31A CG2R61  1  0.346773417049  0.110698234855
CC31A CG2R62  1  0.338541512893  0.125520000000
CC31A CG2R63  1  0.338541512893  0.132309697301
CC31A CG2R64  1  0.356359487256  0.083680000000
CC31A CG2R66  1  0.338541512893  0.110698234855
CC31A CG2R67  1  0.346773417049  0.110698234855
CC31A CG2RC0  1  0.334977918021  0.131646486622
CC31A CG2R71  1  0.346987232741  0.108300154755
CC31A CG2RC7  1  0.334977918021  0.131646486622
CC31A CG301  1  0.338541512893  0.041840000000
CC31A CG302  1  0.374177461619  0.059170695450
CC31A CG311  1  0.338541512893  0.041840000000
CC31A CG312  1  0.351904993665  0.085746484010
CC31A CG314  1  0.338541512893  0.041840000000
CC31A CG321  1  0.338541512893  0.041840000000
CC31A CG322  1  0.338541512893  0.102486650838
CC31A CG323  1  0.365268474438  0.138767581228
CC31A CG324  1  0.338541512893  0.041840000000
CC31A CG331  1  0.338541512893  0.041840000000
CC31A CG334  1  0.338541512893  0.041840000000
CC31A CG3C50  1  0.338541512893  0.041840000000
CC31A CG3C51  1  0.338541512893  0.041840000000
CC31A CG3C52  1  0.338541512893  0.041840000000
CC31A CG3C53  1  0.338541512893  0.041840000000
CC31A CG3C54  1  0.338541512893  0.041840000000
CC31A CG3C31  1  0.338541512893  0.041840000000
CC31A CG3C41  1  0.338541512893  0.041840000000
CC31A CG3RC1  1  0.338541512893  0.041840000000
CC31A CG3AM0  1  0.344777803920  0.110698234855
CC31A CG3AM1  1  0.345668702638  0.116852760686
CC31A CG3AM2  1  0.346559601357  0.118341390899
CC31A NG1T1  1  0.328741626994  0.177512086349
CC31A NG2D1  1  0.334087019303  0.187114168357
CC31A NG2S0  1  0.334087019303  0.004184000000
CC31A NG2S1  1  0.307360057758  0.187114168357
CC31A NG2S2  1  0.334087019303  0.187114168357
CC31A NG2S3  1  0.334087019303  0.187114168357
CC31A NG2O1  1  0.334087019303  0.187114168357
CC31A NG2P1  1  0.334087019303  0.187114168357
CC31A NG2R43  1  0.334087019303  0.187114168357
CC31A NG2R50  1  0.334087019303  0.187114168357
CC31A NG2R51  1  0.334087019303  0.187114168357
CC31A NG2R52  1  0.334087019303  0.187114168357
CC31A NG2R53  1  0.334087019303  0.187114168357
CC31A NG2R57  1  0.334087019303  0.187114168357
CC31A NG2R60  1  0.337650614175  0.102486650838
CC31A NG2R61  1  0.334087019303  0.187114168357
CC31A NG2R62  1  0.352795892384  0.093557084179
CC31A NG2R67  1  0.334087019303  0.187114168357
CC31A NG2RC0  1  0.334087019303  0.187114168357
CC31A NG301  1  0.347450500075  0.078275472531
CC31A NG311  1  0.347450500075  0.088756043175
CC31A NG321  1  0.346559601357  0.102486650838
CC31A NG331  1  0.345668702638  0.110698234855
CC31A NG3C51  1  0.334087019303  0.187114168357
CC31A NG3N1  1  0.351904993665  0.102486650838
CC31A NG3P0  1  0.334087019303  0.187114168357
CC31A NG3P1  1  0.334087019303  0.187114168357
CC31A NG3P2  1  0.334087019303  0.187114168357
CC31A NG3P3  1  0.334087019303  0.187114168357
CC31A OG2D1  1  0.293996576986  0.144938011577
CC31A OG2D2  1  0.320723538531  0.144938011577
CC31A OG2D3  1  0.293996576986  0.144938011577
CC31A OG2D4  1  0.320723538531  0.144938011577
CC31A OG2D5  1  0.320010819556  0.169954883425
CC31A OG2N1  1  0.320723538531  0.144938011577
CC31A OG2P1  1  0.320723538531  0.144938011577
CC31A OG2R50  1  0.320723538531  0.144938011577
CC31A OG3R60  1  0.316269044940  0.132309697301
CC31A OG301  1  0.316269044940  0.132309697301
CC31A OG302  1  0.316269044940  0.132309697301
CC31A OG303  1  0.316269044940  0.132309697301
CC31A OG304  1  0.316269044940  0.132309697301
CC31A OG311  1  0.326514380198  0.183381431383
CC31A OG312  1  0.325178032121  0.144938011577
CC31A OG3C31  1  0.316269044940  0.132309697301
CC31A OG3C51  1  0.316269044940  0.132309697301
CC31A OG3C61  1  0.316269044940  0.132309697301
CC31A OGTIP3  1  0.326799467788  0.163176000000
CC31A SG2D1  1  0.351904993665  0.314496560236
CC31A SG2R50  1  0.347450500075  0.280671252536
CC31A SG311  1  0.347450500075  0.280671252536
CC31A SG301  1  0.345223253279  0.257919081884
CC31A SG302  1  0.365268474438  0.286840588481
CC31A SG3O1  1  0.356359487256  0.286840588481
CC31A SG3O2  1  0.347450500075  0.247528778125
CC31A SG3O3  1  0.347450500075  0.247528778125
CC31A  FGA1  1  0.314487247504  0.153729976257
CC31A  FGA2  1  0.314487247504  0.135577095411
CC31A  FGA3  1  0.311814551349  0.130309939452
CC31A  FGP1  1  0.311814551349  0.130309939452
CC31A  FGR1  1  0.320723538531  0.144938011577
CC31A CLGA1  1  0.339432411611  0.245040988571
CC31A CLGA3  1  0.339432411611  0.232955260941
CC31A BRGA1  1  0.344777803920  0.289876023155
CC31A BRGA2  1  0.351904993665  0.304599797767
CC31A BRGA3  1  0.347450500075  0.307459952514
CC31A   SOD  1  0.294954293108  0.090610410351
CC31A   CLA  1  0.371504765465  0.162045623205
CC31A   PG0  1  0.360813980847  0.320014464673
CC31A   PG1  1  0.360813980847  0.320014464673
CC31A   PG2  1  0.360813980847  0.320014464673
CC31A  ALG1  1  0.347450500075  0.337324864189
CC31A   LPH  1  0.169270756447  0.000000000000
CC31A CLGR1  1  0.334977918021  0.200657590935
CC31A BRGR1  1  0.345668702638  0.236682781799
CC31A  IGR1  1  0.368832069310  0.301712530731
CC31A SG2P1  1  0.355798221064  0.332305491450
CC31A OG2S1  1  0.318906105146  0.157831660601
CC31A SG2P2  1  0.352314807076  0.329421919951
CC31A SEGD1  1  0.363041227642  0.330244580395
CC31A BG201  1  0.396449929572  0.081561175077
CC31A CC301  1  0.338541512893  0.041840000000
CC31A CC3062  1  0.338541512893  0.041840000000
CC31A CC311  1  0.338541512893  0.041840000000
CC31A CC3161  1  0.338541512893  0.041840000000
CC31A CC3162  1  0.338541512893  0.041840000000
CC31A CC3163  1  0.338541512893  0.041840000000
CC31A CC321  1  0.338541512893  0.041840000000
CC31A CC3261  1  0.338541512893  0.041840000000
CC31A CC3263  1  0.338541512893  0.041840000000
CC31A CC331  1  0.338541512893  0.041840000000
CC31A CC2O1  1  0.347450500075  0.138767581228
CC31A CC2O2  1  0.347450500075  0.110698234855
CC31A CC2O3  1  0.347450500075  0.125520000000
CC31A CC2O4  1  0.329632525712  0.102486650838
CC31A CC2O5  1  0.320723538531  0.130979917850
CC31A OC2D1  1  0.293996576986  0.144938011577
CC31A OC2D2  1  0.320723538531  0.144938011577
CC31A OC2D3  1  0.293996576986  0.144938011577
CC31A OC2D4  1  0.293996576986  0.144938011577
CC31A OC3C61  1  0.316269044940  0.132309697301
CC31A OC311  1  0.326514380198  0.183381431383
CC31A NC2D1  1  0.307360057758  0.187114168357
CC31A  HCP1  1  0.189271432669  0.089736802707
CC31A  HCA1  1  0.288651184677  0.088756043175
CC31A  HCA2  1  0.288651184677  0.078275472531
CC31A  HCA3  1  0.288651184677  0.064818249282
CC31A CC312  1  0.338541512893  0.041840000000
CC31A CC322  1  0.338541512893  0.041840000000
CC31A  HCR1  1  0.240542653898  0.089736802707
CC31A HCA3M  1  0.288651184677  0.064818249282
CC31A CC321C  1  0.338541512893  0.041840000000
CC31A CC321D  1  0.338541512893  0.041840000000
CC31A CC311C  1  0.338541512893  0.041840000000
CC31A CC311D  1  0.338541512893  0.041840000000
CC31A OC301  1  0.316269044940  0.132309697301
CC31A OC302  1  0.316269044940  0.132309697301
CC31A HCP1M  1  0.189271432669  0.089736802707
CC31A OC311M  1  0.326514380198  0.183381431383
CC31A OC3C5M  1  0.316269044940  0.132309697301
CC31A CC322C  1  0.338541512893  0.041840000000
CC31A HCA2C2  1  0.285087589805  0.078275472531
CC31A CC312C  1  0.338541512893  0.041840000000
CC31A HCA1C2  1  0.288651184677  0.088756043175
CC31A OC3C51  1  0.316269044940  0.132309697301
CC31A CC3152  1  0.338541512893  0.041840000000
CC31A CC3051  1  0.338541512893  0.041840000000
CC31A CC3251  1  0.338541512893  0.041840000000
CC31A CC3151  1  0.338541512893  0.041840000000
CC31A CC3153  1  0.338541512893  0.041840000000
CC31A OC2DP  1  0.320723538531  0.144938011577
CC31A OC312  1  0.326959829558  0.163176000000
CC31A OC30P  1  0.326959829558  0.163176000000
CC31A    PC  1  0.360813980847  0.320014464673
CC31A    SC  1  0.356359487256  0.286840588481
CC31A CC312D  1  0.338541512893  0.041840000000
CC31A OC303  1  0.316269044940  0.132309697301
CC31A NC311  1  0.347450500075  0.088756043175
CC31A   HN1  1  0.189271432669  0.089736802707
CC31A   HN2  1  0.189271432669  0.089736802707
CC31A   HN3  1  0.267269615442  0.089736802707
CC31A   HN4  1  0.189271432669  0.089736802707
CC31A   HN5  1  0.189271432669  0.089736802707
CC31A   HN6  1  0.286869387241  0.062058748940
CC31A   HN7  1  0.286869387241  0.062058748940
CC31A   HN8  1  0.288651184677  0.070011711020
CC31A   HN9  1  0.288651184677  0.064818249282
CC31A   NN1  1  0.334087019303  0.187114168357
CC31A   NN2  1  0.334087019303  0.187114168357
CC31A  NN2B  1  0.334087019303  0.187114168357
CC31A  NN2G  1  0.334087019303  0.187114168357
CC31A  NN2U  1  0.334087019303  0.187114168357
CC31A   NN3  1  0.334087019303  0.187114168357
CC31A  NN3A  1  0.334087019303  0.187114168357
CC31A  NN3G  1  0.334087019303  0.187114168357
CC31A   NN4  1  0.334087019303  0.187114168357
CC31A   NN6  1  0.334087019303  0.187114168357
CC31A   ON1  1  0.320723538531  0.144938011577
CC31A  ON1C  1  0.320723538531  0.144938011577
CC31A   ON2  1  0.326959829558  0.163176000000
CC31A   ON3  1  0.320723538531  0.144938011577
CC31A   ON4  1  0.326959829558  0.163176000000
CC31A   ON5  1  0.326959829558  0.163176000000
CC31A   ON6  1  0.326959829558  0.163176000000
CC31A  ON6B  1  0.326959829558  0.163176000000
CC31A   CN1  1  0.338541512893  0.132309697301
CC31A  CN1T  1  0.338541512893  0.132309697301
CC31A   CN2  1  0.338541512893  0.132309697301
CC31A   CN3  1  0.338541512893  0.125520000000
CC31A  CN3T  1  0.338541512893  0.125520000000
CC31A   CN4  1  0.338541512893  0.114583559030
CC31A   CN5  1  0.338541512893  0.114583559030
CC31A  CN5G  1  0.338541512893  0.114583559030
CC31A   CN7  1  0.338541512893  0.041840000000
CC31A  CN7B  1  0.338541512893  0.041840000000
CC31A   CN8  1  0.338541512893  0.041840000000
CC31A  CN8B  1  0.338541512893  0.041840000000
CC31A   CN9  1  0.338541512893  0.041840000000
CC31A     P  1  0.360813980847  0.320014464673
CC31A    P2  1  0.360813980847  0.320014464673
CC31A    P3  1  0.360813980847  0.320014464673
CC31A    P4  1  0.360813980847  0.320014464673
CC31A   HOL  1  0.189271432669  0.089736802707
CC31A  HAL1  1  0.286869387241  0.062058748940
CC31A  HAL2  1  0.288651184677  0.070011711020
CC31A  HAL3  1  0.288651184677  0.064818249282
CC31A   HBL  1  0.286869387241  0.062058748940
CC31A   HCL  1  0.189271432669  0.089736802707
CC31A    HL  1  0.231633666716  0.089736802707
CC31A  HEL1  1  0.280633096214  0.073666921749
CC31A  HEL2  1  0.281523994932  0.067464972838
CC31A    CL  1  0.347450500075  0.110698234855
CC31A   CCL  1  0.347450500075  0.110698234855
CC31A  CTL1  1  0.338541512893  0.041840000000
CC31A  CTL2  1  0.338541512893  0.041840000000
CC31A  CTL3  1  0.338541512893  0.041840000000
CC31A  CTL5  1  0.338541512893  0.041840000000
CC31A  CEL1  1  0.355468588538  0.109105371453
CC31A  CEL2  1  0.354577689820  0.105847757841
CC31A  CRL1  1  0.338541512893  0.041840000000
CC31A  CRL2  1  0.338541512893  0.041840000000
CC31A   OBL  1  0.293996576986  0.144938011577
CC31A   OCL  1  0.320723538531  0.144938011577
CC31A   O2L  1  0.320723538531  0.144938011577
CC31A   OHL  1  0.326959829558  0.163176000000
CC31A   OSL  1  0.316269044940  0.132309697301
CC31A  OSLP  1  0.316269044940  0.132309697301
CC31A  NH3L  1  0.334087019303  0.187114168357
CC31A   NTL  1  0.334087019303  0.187114168357
CC31A    SL  1  0.356359487256  0.286840588481
CC31A    PL  1  0.360813980847  0.320014464673
CC31A HCA1A  1  0.288651184677  0.088756043175
CC31A HCA2A  1  0.288651184677  0.078275472531
CC31A HCA3A  1  0.288651184677  0.064818249282
CC31A CC30A  1  0.338541512893  0.041840000000
CC31A CC31A  1  0.338541512893  0.041840000000
CC31A CC32A  1  0.338541512893  0.041840000000
CC31A CC33A  1  0.338541512893  0.041840000000
CC31A CC326A  1  0.338541512893  0.041840000000
CC31A HCA25A  1  0.285087589805  0.078275472531
CC31A CC325A  1  0.338541512893  0.041840000000
CC31A CC325B  1  0.338541512893  0.041840000000
CC31A OC305A  1  0.316269044940  0.132309697301
CC31A OC30A  1  0.316269044940  0.132309697301
CC31A  HSIO  1  0.189271432669  0.089736802707
CC31A  HSIA  1  0.286869387241  0.062058748940
CC31A   HAL  1  0.286869387241  0.062058748940
CC31A    AL  1  0.365268474438  0.337324864189
CC31A    SI  1  0.365268474438  0.324091246411
CC31A  SIH3  1  0.365268474438  0.324091246411
CC31A  OSIH  1  0.326959829558  0.163176000000
CC31A  OSIE  1  0.326959829558  0.163176000000
CC31A  OSIA  1  0.326959829558  0.163176000000
CC31A   OAL  1  0.326959829558  0.163176000000
CC31A    HT  1  0.189271432669  0.089736802707
CC31A    OT  1  0.326799467788  0.163176000000
CC31A   DUM  1  0.169270756447  0.000000000000
CC31A    CM  1  0.356359487256  0.138767581228
CC31A   CPA  1  0.329632525712  0.125520000000
CC31A   CPB  1  0.329632525712  0.125520000000
CC31A   CPM  1  0.329632525712  0.125520000000
CC31A   CST  1  0.308518226092  0.100764063435
CC31A  CT1X  1  0.338541512893  0.041840000000
CC31A  CT2X  1  0.338541512893  0.041840000000
CC31A  CT3X  1  0.338541512893  0.041840000000
CC31A    HB  1  0.286869387241  0.062058748940
CC31A   NPH  1  0.334087019303  0.187114168357
CC31A    OM  1  0.320723538531  0.144938011577
CC31A   OST  1  0.320010819556  0.169954883425
CC31A   POT  1  0.326403017859  0.123410269913
CC31A   CAL  1  0.291056611216  0.144938011577
CC31A    MG  1  0.274842254546  0.051243325419
CC31A   CES  1  0.356359487256  0.182376331798
CC31A    ZN  1  0.266378716724  0.209200000000
CC31A    FE  1  0.227179173126  0.000000000000
CC31A    HE  1  0.301123766731  0.061020452073
CC31A    NE  1  0.305578260322  0.122698965603
CC31A  CLAL  1  0.339272049842  0.072469005789
CC31A    AG  1  0.300901042052  0.893457908130
CC31A    AU  1  0.300722862308  0.962320000000
CC31A    CU  1  0.285800308779  0.908997471504
CC31A    NI  1  0.282949432881  0.994525446633
CC31A    PB  1  0.328073452955  0.716185437439
CC31A    PD  1  0.294842930769  1.037598257516
CC31A    PT  1  0.296001099102  1.168527606863
CC31A   CAP  1  0.346773417049  0.110698234855
CC31A    FA  1  0.320723538531  0.144938011577
CC31A    CN  1  0.325178032121  0.187114168357
CC31A    NC  1  0.334087019303  0.324091246411
CC31A   OCA  1  0.293996576986  0.144938011577
CC31A   COA  1  0.347450500075  0.138767581228
CC31A   CF1  1  0.338541512893  0.102486650838
CC31A   CF2  1  0.351904993665  0.085746484010
CC31A   CF3  1  0.374177461619  0.059170695450
CC31A   HF1  1  0.286869387241  0.070011711020
CC31A   HF2  1  0.285087589805  0.072469005789
CC31A    F1  1  0.314487247504  0.153729976257
CC31A    F2  1  0.314487247504  0.135577095411
CC31A    F3  1  0.311814551349  0.130309939452
CC31A    OX  1  0.320723538531  0.144938011577
CC31A    HX  1  0.189271432669  0.089736802707
CC31A  HPER  1  0.189271432669  0.089736802707
CC31A  OPER  1  0.318427692534  0.188901923946
CC31A   LIT  1  0.284864865125  0.020196198771
CC31A   RUB  1  0.338541512893  0.162045623205
CC31A   BAR  1  0.337650614175  0.162045623205
CC31A   CAD  1  0.290165712498  0.144938011577
CC31A  ON2B  1  0.326959829558  0.163176000000
CC31A    SP  1  0.365268474438  0.280671252536
CC31A   HNP  1  0.290272620344  0.072469005789
CC31A  HNE1  1  0.280633096214  0.073666921749
CC31A  HNE2  1  0.281523994932  0.067464972838
CC31A  CN3D  1  0.338541512893  0.125520000000
CC31A  CNE1  1  0.355468588538  0.109105371453
CC31A  CNE2  1  0.354577689820  0.105847757841
CC31A   CNA  1  0.346773417049  0.110698234855
CC31A  CNA2  1  0.338541512893  0.110698234855
CC31A   CNG  1  0.347450500075  0.138767581228
CC31A  NN1C  1  0.334087019303  0.187114168357
CC31A  NN2C  1  0.334087019303  0.187114168357
CC31A  NN3I  1  0.334087019303  0.187114168357
CC31A   NNG  1  0.334087019303  0.187114168357
CC31A   FNA  1  0.320723538531  0.144938011577
CC31A  ON2M  1  0.316269044940  0.132309697301
CC31A   CN6  1  0.338541512893  0.041840000000
CC31A  CN7E  1  0.338541512893  0.041840000000
CC31A  CT2P  1  0.338541512893  0.041840000000
CC31A  CTD1  1  0.338541512893  0.041840000000
CC31A  CPD1  1  0.338541512893  0.041840000000
CC31A  CC1A  1  0.355468588538  0.109105371453
CC31A  CC1B  1  0.355468588538  0.109105371453
CC31A   CC2  1  0.354577689820  0.105847757841
CC31A   NS1  1  0.334087019303  0.187114168357
CC31A   NS2  1  0.334087019303  0.187114168357
CC31A   NHL  1  0.307360057758  0.187114168357
CC31A  CTO1  1  0.338541512893  0.041840000000
CC31A  CEL3  1  0.355468588538  0.109105371453
CC31A  CTO2  1  0.338541512893  0.041840000000
CC31A  HN3B  1  0.249451641079  0.089736802707
CC31A  CN1A  1  0.347450500075  0.110698234855
CC31A  CN3A  1  0.329632525712  0.177512086349
CC31A  CN3B  1  0.329632525712  0.177512086349
CC31A  CN3C  1  0.329632525712  0.177512086349
CC32A     C  1  0.347450500075  0.138767581228
CC32A    CA  1  0.346773417049  0.110698234855
CC32A    CC  1  0.347450500075  0.110698234855
CC32A    CD  1  0.347450500075  0.110698234855
CC32A   CE1  1  0.355468588538  0.109105371453
CC32A   CE2  1  0.354577689820  0.105847757841
CC32A   CP1  1  0.338541512893  0.041840000000
CC32A   CP2  1  0.338541512893  0.041840000000
CC32A   CP3  1  0.338541512893  0.041840000000
CC32A  CPH1  1  0.329632525712  0.093557084179
CC32A  CPH2  1  0.329632525712  0.093557084179
CC32A    CS  1  0.365268474438  0.138767581228
CC32A   CPT  1  0.334977918021  0.131646486622
CC32A    CY  1  0.346559601357  0.113045454929
CC32A   CAI  1  0.346559601357  0.113045454929
CC32A    CT  1  0.338541512893  0.041840000000
CC32A   CT1  1  0.338541512893  0.041840000000
CC32A   CT2  1  0.338541512893  0.041840000000
CC32A  CT2A  1  0.338541512893  0.041840000000
CC32A   CT3  1  0.338541512893  0.041840000000
CC32A    C3  1  0.371950214824  0.059170695450
CC32A     H  1  0.189271432669  0.089736802707
CC32A    HA  1  0.286869387241  0.062058748940
CC32A   HB1  1  0.286869387241  0.062058748940
CC32A   HB2  1  0.288651184677  0.070011711020
CC32A   HE1  1  0.280633096214  0.073666921749
CC32A   HE2  1  0.281523994932  0.067464972838
CC32A    HC  1  0.189271432669  0.089736802707
CC32A    HP  1  0.290272620344  0.072469005789
CC32A   HR1  1  0.249451641079  0.089736802707
CC32A   HR2  1  0.231633666716  0.089736802707
CC32A   HR3  1  0.300054688270  0.036952087465
CC32A    HS  1  0.209361198763  0.132309697301
CC32A   HA1  1  0.288651184677  0.088756043175
CC32A   HA2  1  0.288651184677  0.077149148019
CC32A   HA3  1  0.288651184677  0.064818249282
CC32A     N  1  0.334087019303  0.004184000000
CC32A   NC2  1  0.334087019303  0.187114168357
CC32A   NH1  1  0.307360057758  0.187114168357
CC32A   NH2  1  0.334087019303  0.187114168357
CC32A   NH3  1  0.334087019303  0.187114168357
CC32A    NP  1  0.334087019303  0.187114168357
CC32A   NR1  1  0.334087019303  0.187114168357
CC32A   NR2  1  0.334087019303  0.187114168357
CC32A   NR3  1  0.334087019303  0.187114168357
CC32A    NY  1  0.334087019303  0.187114168357
CC32A     O  1  0.293996576986  0.144938011577
CC32A    OB  1  0.293996576986  0.144938011577
CC32A    OC  1  0.320723538531  0.144938011577
CC32A   OH1  1  0.326959829558  0.163176000000
CC32A    OS  1  0.326959829558  0.163176000000
CC32A     S  1  0.347450500075  0.280671252536
CC32A    SM  1  0.345223253279  0.257919081884
CC32A    SS  1  0.365268474438  0.286840588481
CC32A  HGA1  1  0.288651184677  0.088756043175
CC32A  HGA2  1  0.288651184677  0.078275472531
CC32A  HGA3  1  0.288651184677  0.064818249282
CC32A  HGA4  1  0.280633096214  0.073666921749
CC32A  HGA5  1  0.281523994932  0.067464972838
CC32A  HGA6  1  0.286869387241  0.070011711020
CC32A  HGA7  1  0.285087589805  0.072469005789
CC32A HGAAM0  1  0.283305792369  0.070011711020
CC32A HGAAM1  1  0.283305792369  0.070011711020
CC32A HGAAM2  1  0.281523994932  0.083680000000
CC32A  HGP1  1  0.189271432669  0.089736802707
CC32A  HGP2  1  0.189271432669  0.089736802707
CC32A  HGP3  1  0.209361198763  0.132309697301
CC32A  HGP4  1  0.189271432669  0.089736802707
CC32A  HGP5  1  0.231633666716  0.089736802707
CC32A HGPAM1  1  0.247224394284  0.039692909190
CC32A HGPAM2  1  0.247224394284  0.041840000000
CC32A HGPAM3  1  0.246778944925  0.045833423612
CC32A HGR51  1  0.290272620344  0.072469005789
CC32A HGR52  1  0.249451641079  0.089736802707
CC32A HGR53  1  0.231633666716  0.089736802707
CC32A HGR61  1  0.290272620344  0.072469005789
CC32A HGR62  1  0.267269615442  0.089736802707
CC32A HGR63  1  0.249451641079  0.089736802707
CC32A HGR71  1  0.290272620344  0.072469005789
CC32A HGTIP3  1  0.189271432669  0.089736802707
CC32A CG1T1  1  0.333196120584  0.170981810495
CC32A CG1T2  1  0.346782326036  0.134409982486
CC32A CG1N1  1  0.335868816739  0.177512086349
CC32A CG2D1  1  0.355468588538  0.109105371453
CC32A CG2D2  1  0.354577689820  0.105847757841
CC32A CG2D1O  1  0.355468588538  0.109105371453
CC32A CG2D2O  1  0.355468588538  0.109105371453
CC32A CG2DC1  1  0.355468588538  0.109105371453
CC32A CG2DC2  1  0.355468588538  0.109105371453
CC32A CG2DC3  1  0.354577689820  0.105847757841
CC32A CG2N1  1  0.347450500075  0.138767581228
CC32A CG2N2  1  0.347450500075  0.138767581228
CC32A CG2O1  1  0.347450500075  0.138767581228
CC32A CG2O2  1  0.320723538531  0.130979917850
CC32A CG2O3  1  0.347450500075  0.110698234855
CC32A CG2O4  1  0.329632525712  0.102486650838
CC32A CG2O5  1  0.347450500075  0.125520000000
CC32A CG2O6  1  0.347450500075  0.110698234855
CC32A CG2O7  1  0.308518226092  0.100764063435
CC32A CG2R51  1  0.356359487256  0.093557084179
CC32A CG2R52  1  0.365268474438  0.059170695450
CC32A CG2R53  1  0.365268474438  0.059170695450
CC32A CG2R57  1  0.356359487256  0.093557084179
CC32A CG25C1  1  0.355468588538  0.109105371453
CC32A CG25C2  1  0.355468588538  0.109105371453
CC32A CG251O  1  0.355468588538  0.109105371453
CC32A CG252O  1  0.355468588538  0.109105371453
CC32A CG2R61  1  0.346773417049  0.110698234855
CC32A CG2R62  1  0.338541512893  0.125520000000
CC32A CG2R63  1  0.338541512893  0.132309697301
CC32A CG2R64  1  0.356359487256  0.083680000000
CC32A CG2R66  1  0.338541512893  0.110698234855
CC32A CG2R67  1  0.346773417049  0.110698234855
CC32A CG2RC0  1  0.334977918021  0.131646486622
CC32A CG2R71  1  0.346987232741  0.108300154755
CC32A CG2RC7  1  0.334977918021  0.131646486622
CC32A CG301  1  0.338541512893  0.041840000000
CC32A CG302  1  0.374177461619  0.059170695450
CC32A CG311  1  0.338541512893  0.041840000000
CC32A CG312  1  0.351904993665  0.085746484010
CC32A CG314  1  0.338541512893  0.041840000000
CC32A CG321  1  0.338541512893  0.041840000000
CC32A CG322  1  0.338541512893  0.102486650838
CC32A CG323  1  0.365268474438  0.138767581228
CC32A CG324  1  0.338541512893  0.041840000000
CC32A CG331  1  0.338541512893  0.041840000000
CC32A CG334  1  0.338541512893  0.041840000000
CC32A CG3C50  1  0.338541512893  0.041840000000
CC32A CG3C51  1  0.338541512893  0.041840000000
CC32A CG3C52  1  0.338541512893  0.041840000000
CC32A CG3C53  1  0.338541512893  0.041840000000
CC32A CG3C54  1  0.338541512893  0.041840000000
CC32A CG3C31  1  0.338541512893  0.041840000000
CC32A CG3C41  1  0.338541512893  0.041840000000
CC32A CG3RC1  1  0.338541512893  0.041840000000
CC32A CG3AM0  1  0.344777803920  0.110698234855
CC32A CG3AM1  1  0.345668702638  0.116852760686
CC32A CG3AM2  1  0.346559601357  0.118341390899
CC32A NG1T1  1  0.328741626994  0.177512086349
CC32A NG2D1  1  0.334087019303  0.187114168357
CC32A NG2S0  1  0.334087019303  0.004184000000
CC32A NG2S1  1  0.307360057758  0.187114168357
CC32A NG2S2  1  0.334087019303  0.187114168357
CC32A NG2S3  1  0.334087019303  0.187114168357
CC32A NG2O1  1  0.334087019303  0.187114168357
CC32A NG2P1  1  0.334087019303  0.187114168357
CC32A NG2R43  1  0.334087019303  0.187114168357
CC32A NG2R50  1  0.334087019303  0.187114168357
CC32A NG2R51  1  0.334087019303  0.187114168357
CC32A NG2R52  1  0.334087019303  0.187114168357
CC32A NG2R53  1  0.334087019303  0.187114168357
CC32A NG2R57  1  0.334087019303  0.187114168357
CC32A NG2R60  1  0.337650614175  0.102486650838
CC32A NG2R61  1  0.334087019303  0.187114168357
CC32A NG2R62  1  0.352795892384  0.093557084179
CC32A NG2R67  1  0.334087019303  0.187114168357
CC32A NG2RC0  1  0.334087019303  0.187114168357
CC32A NG301  1  0.347450500075  0.078275472531
CC32A NG311  1  0.347450500075  0.088756043175
CC32A NG321  1  0.346559601357  0.102486650838
CC32A NG331  1  0.345668702638  0.110698234855
CC32A NG3C51  1  0.334087019303  0.187114168357
CC32A NG3N1  1  0.351904993665  0.102486650838
CC32A NG3P0  1  0.334087019303  0.187114168357
CC32A NG3P1  1  0.334087019303  0.187114168357
CC32A NG3P2  1  0.334087019303  0.187114168357
CC32A NG3P3  1  0.334087019303  0.187114168357
CC32A OG2D1  1  0.293996576986  0.144938011577
CC32A OG2D2  1  0.320723538531  0.144938011577
CC32A OG2D3  1  0.293996576986  0.144938011577
CC32A OG2D4  1  0.320723538531  0.144938011577
CC32A OG2D5  1  0.320010819556  0.169954883425
CC32A OG2N1  1  0.320723538531  0.144938011577
CC32A OG2P1  1  0.320723538531  0.144938011577
CC32A OG2R50  1  0.320723538531  0.144938011577
CC32A OG3R60  1  0.316269044940  0.132309697301
CC32A OG301  1  0.316269044940  0.132309697301
CC32A OG302  1  0.316269044940  0.132309697301
CC32A OG303  1  0.316269044940  0.132309697301
CC32A OG304  1  0.316269044940  0.132309697301
CC32A OG311  1  0.326514380198  0.183381431383
CC32A OG312  1  0.325178032121  0.144938011577
CC32A OG3C31  1  0.316269044940  0.132309697301
CC32A OG3C51  1  0.316269044940  0.132309697301
CC32A OG3C61  1  0.316269044940  0.132309697301
CC32A OGTIP3  1  0.326799467788  0.163176000000
CC32A SG2D1  1  0.351904993665  0.314496560236
CC32A SG2R50  1  0.347450500075  0.280671252536
CC32A SG311  1  0.347450500075  0.280671252536
CC32A SG301  1  0.345223253279  0.257919081884
CC32A SG302  1  0.365268474438  0.286840588481
CC32A SG3O1  1  0.356359487256  0.286840588481
CC32A SG3O2  1  0.347450500075  0.247528778125
CC32A SG3O3  1  0.347450500075  0.247528778125
CC32A  FGA1  1  0.314487247504  0.153729976257
CC32A  FGA2  1  0.314487247504  0.135577095411
CC32A  FGA3  1  0.311814551349  0.130309939452
CC32A  FGP1  1  0.311814551349  0.130309939452
CC32A  FGR1  1  0.320723538531  0.144938011577
CC32A CLGA1  1  0.339432411611  0.245040988571
CC32A CLGA3  1  0.339432411611  0.232955260941
CC32A BRGA1  1  0.344777803920  0.289876023155
CC32A BRGA2  1  0.351904993665  0.304599797767
CC32A BRGA3  1  0.347450500075  0.307459952514
CC32A   SOD  1  0.294954293108  0.090610410351
CC32A   CLA  1  0.371504765465  0.162045623205
CC32A   PG0  1  0.360813980847  0.320014464673
CC32A   PG1  1  0.360813980847  0.320014464673
CC32A   PG2  1  0.360813980847  0.320014464673
CC32A  ALG1  1  0.347450500075  0.337324864189
CC32A   LPH  1  0.169270756447  0.000000000000
CC32A CLGR1  1  0.334977918021  0.200657590935
CC32A BRGR1  1  0.345668702638  0.236682781799
CC32A  IGR1  1  0.368832069310  0.301712530731
CC32A SG2P1  1  0.355798221064  0.332305491450
CC32A OG2S1  1  0.318906105146  0.157831660601
CC32A SG2P2  1  0.352314807076  0.329421919951
CC32A SEGD1  1  0.363041227642  0.330244580395
CC32A BG201  1  0.396449929572  0.081561175077
CC32A CC301  1  0.338541512893  0.041840000000
CC32A CC3062  1  0.338541512893  0.041840000000
CC32A CC311  1  0.338541512893  0.041840000000
CC32A CC3161  1  0.338541512893  0.041840000000
CC32A CC3162  1  0.338541512893  0.041840000000
CC32A CC3163  1  0.338541512893  0.041840000000
CC32A CC321  1  0.338541512893  0.041840000000
CC32A CC3261  1  0.338541512893  0.041840000000
CC32A CC3263  1  0.338541512893  0.041840000000
CC32A CC331  1  0.338541512893  0.041840000000
CC32A CC2O1  1  0.347450500075  0.138767581228
CC32A CC2O2  1  0.347450500075  0.110698234855
CC32A CC2O3  1  0.347450500075  0.125520000000
CC32A CC2O4  1  0.329632525712  0.102486650838
CC32A CC2O5  1  0.320723538531  0.130979917850
CC32A OC2D1  1  0.293996576986  0.144938011577
CC32A OC2D2  1  0.320723538531  0.144938011577
CC32A OC2D3  1  0.293996576986  0.144938011577
CC32A OC2D4  1  0.293996576986  0.144938011577
CC32A OC3C61  1  0.316269044940  0.132309697301
CC32A OC311  1  0.326514380198  0.183381431383
CC32A NC2D1  1  0.307360057758  0.187114168357
CC32A  HCP1  1  0.189271432669  0.089736802707
CC32A  HCA1  1  0.288651184677  0.088756043175
CC32A  HCA2  1  0.288651184677  0.078275472531
CC32A  HCA3  1  0.288651184677  0.064818249282
CC32A CC312  1  0.338541512893  0.041840000000
CC32A CC322  1  0.338541512893  0.041840000000
CC32A  HCR1  1  0.240542653898  0.089736802707
CC32A HCA3M  1  0.288651184677  0.064818249282
CC32A CC321C  1  0.338541512893  0.041840000000
CC32A CC321D  1  0.338541512893  0.041840000000
CC32A CC311C  1  0.338541512893  0.041840000000
CC32A CC311D  1  0.338541512893  0.041840000000
CC32A OC301  1  0.316269044940  0.132309697301
CC32A OC302  1  0.316269044940  0.132309697301
CC32A HCP1M  1  0.189271432669  0.089736802707
CC32A OC311M  1  0.326514380198  0.183381431383
CC32A OC3C5M  1  0.316269044940  0.132309697301
CC32A CC322C  1  0.338541512893  0.041840000000
CC32A HCA2C2  1  0.285087589805  0.078275472531
CC32A CC312C  1  0.338541512893  0.041840000000
CC32A HCA1C2  1  0.288651184677  0.088756043175
CC32A OC3C51  1  0.316269044940  0.132309697301
CC32A CC3152  1  0.338541512893  0.041840000000
CC32A CC3051  1  0.338541512893  0.041840000000
CC32A CC3251  1  0.338541512893  0.041840000000
CC32A CC3151  1  0.338541512893  0.041840000000
CC32A CC3153  1  0.338541512893  0.041840000000
CC32A OC2DP  1  0.320723538531  0.144938011577
CC32A OC312  1  0.326959829558  0.163176000000
CC32A OC30P  1  0.326959829558  0.163176000000
CC32A    PC  1  0.360813980847  0.320014464673
CC32A    SC  1  0.356359487256  0.286840588481
CC32A CC312D  1  0.338541512893  0.041840000000
CC32A OC303  1  0.316269044940  0.132309697301
CC32A NC311  1  0.347450500075  0.088756043175
CC32A   HN1  1  0.189271432669  0.089736802707
CC32A   HN2  1  0.189271432669  0.089736802707
CC32A   HN3  1  0.267269615442  0.089736802707
CC32A   HN4  1  0.189271432669  0.089736802707
CC32A   HN5  1  0.189271432669  0.089736802707
CC32A   HN6  1  0.286869387241  0.062058748940
CC32A   HN7  1  0.286869387241  0.062058748940
CC32A   HN8  1  0.288651184677  0.070011711020
CC32A   HN9  1  0.288651184677  0.064818249282
CC32A   NN1  1  0.334087019303  0.187114168357
CC32A   NN2  1  0.334087019303  0.187114168357
CC32A  NN2B  1  0.334087019303  0.187114168357
CC32A  NN2G  1  0.334087019303  0.187114168357
CC32A  NN2U  1  0.334087019303  0.187114168357
CC32A   NN3  1  0.334087019303  0.187114168357
CC32A  NN3A  1  0.334087019303  0.187114168357
CC32A  NN3G  1  0.334087019303  0.187114168357
CC32A   NN4  1  0.334087019303  0.187114168357
CC32A   NN6  1  0.334087019303  0.187114168357
CC32A   ON1  1  0.320723538531  0.144938011577
CC32A  ON1C  1  0.320723538531  0.144938011577
CC32A   ON2  1  0.326959829558  0.163176000000
CC32A   ON3  1  0.320723538531  0.144938011577
CC32A   ON4  1  0.326959829558  0.163176000000
CC32A   ON5  1  0.326959829558  0.163176000000
CC32A   ON6  1  0.326959829558  0.163176000000
CC32A  ON6B  1  0.326959829558  0.163176000000
CC32A   CN1  1  0.338541512893  0.132309697301
CC32A  CN1T  1  0.338541512893  0.132309697301
CC32A   CN2  1  0.338541512893  0.132309697301
CC32A   CN3  1  0.338541512893  0.125520000000
CC32A  CN3T  1  0.338541512893  0.125520000000
CC32A   CN4  1  0.338541512893  0.114583559030
CC32A   CN5  1  0.338541512893  0.114583559030
CC32A  CN5G  1  0.338541512893  0.114583559030
CC32A   CN7  1  0.338541512893  0.041840000000
CC32A  CN7B  1  0.338541512893  0.041840000000
CC32A   CN8  1  0.338541512893  0.041840000000
CC32A  CN8B  1  0.338541512893  0.041840000000
CC32A   CN9  1  0.338541512893  0.041840000000
CC32A     P  1  0.360813980847  0.320014464673
CC32A    P2  1  0.360813980847  0.320014464673
CC32A    P3  1  0.360813980847  0.320014464673
CC32A    P4  1  0.360813980847  0.320014464673
CC32A   HOL  1  0.189271432669  0.089736802707
CC32A  HAL1  1  0.286869387241  0.062058748940
CC32A  HAL2  1  0.288651184677  0.070011711020
CC32A  HAL3  1  0.288651184677  0.064818249282
CC32A   HBL  1  0.286869387241  0.062058748940
CC32A   HCL  1  0.189271432669  0.089736802707
CC32A    HL  1  0.231633666716  0.089736802707
CC32A  HEL1  1  0.280633096214  0.073666921749
CC32A  HEL2  1  0.281523994932  0.067464972838
CC32A    CL  1  0.347450500075  0.110698234855
CC32A   CCL  1  0.347450500075  0.110698234855
CC32A  CTL1  1  0.338541512893  0.041840000000
CC32A  CTL2  1  0.338541512893  0.041840000000
CC32A  CTL3  1  0.338541512893  0.041840000000
CC32A  CTL5  1  0.338541512893  0.041840000000
CC32A  CEL1  1  0.355468588538  0.109105371453
CC32A  CEL2  1  0.354577689820  0.105847757841
CC32A  CRL1  1  0.338541512893  0.041840000000
CC32A  CRL2  1  0.338541512893  0.041840000000
CC32A   OBL  1  0.293996576986  0.144938011577
CC32A   OCL  1  0.320723538531  0.144938011577
CC32A   O2L  1  0.320723538531  0.144938011577
CC32A   OHL  1  0.326959829558  0.163176000000
CC32A   OSL  1  0.316269044940  0.132309697301
CC32A  OSLP  1  0.316269044940  0.132309697301
CC32A  NH3L  1  0.334087019303  0.187114168357
CC32A   NTL  1  0.334087019303  0.187114168357
CC32A    SL  1  0.356359487256  0.286840588481
CC32A    PL  1  0.360813980847  0.320014464673
CC32A HCA1A  1  0.288651184677  0.088756043175
CC32A HCA2A  1  0.288651184677  0.078275472531
CC32A HCA3A  1  0.288651184677  0.064818249282
CC32A CC30A  1  0.338541512893  0.041840000000
CC32A CC31A  1  0.338541512893  0.041840000000
CC32A CC32A  1  0.338541512893  0.041840000000
CC32A CC33A  1  0.338541512893  0.041840000000
CC32A CC326A  1  0.338541512893  0.041840000000
CC32A HCA25A  1  0.285087589805  0.078275472531
CC32A CC325A  1  0.338541512893  0.041840000000
CC32A CC325B  1  0.338541512893  0.041840000000
CC32A OC305A  1  0.316269044940  0.132309697301
CC32A OC30A  1  0.316269044940  0.132309697301
CC32A  HSIO  1  0.189271432669  0.089736802707
CC32A  HSIA  1  0.286869387241  0.062058748940
CC32A   HAL  1  0.286869387241  0.062058748940
CC32A    AL  1  0.365268474438  0.337324864189
CC32A    SI  1  0.365268474438  0.324091246411
CC32A  SIH3  1  0.365268474438  0.324091246411
CC32A  OSIH  1  0.326959829558  0.163176000000
CC32A  OSIE  1  0.326959829558  0.163176000000
CC32A  OSIA  1  0.326959829558  0.163176000000
CC32A   OAL  1  0.326959829558  0.163176000000
CC32A    HT  1  0.189271432669  0.089736802707
CC32A    OT  1  0.326799467788  0.163176000000
CC32A   DUM  1  0.169270756447  0.000000000000
CC32A    CM  1  0.356359487256  0.138767581228
CC32A   CPA  1  0.329632525712  0.125520000000
CC32A   CPB  1  0.329632525712  0.125520000000
CC32A   CPM  1  0.329632525712  0.125520000000
CC32A   CST  1  0.308518226092  0.100764063435
CC32A  CT1X  1  0.338541512893  0.041840000000
CC32A  CT2X  1  0.338541512893  0.041840000000
CC32A  CT3X  1  0.338541512893  0.041840000000
CC32A    HB  1  0.286869387241  0.062058748940
CC32A   NPH  1  0.334087019303  0.187114168357
CC32A    OM  1  0.320723538531  0.144938011577
CC32A   OST  1  0.320010819556  0.169954883425
CC32A   POT  1  0.326403017859  0.123410269913
CC32A   CAL  1  0.291056611216  0.144938011577
CC32A    MG  1  0.274842254546  0.051243325419
CC32A   CES  1  0.356359487256  0.182376331798
CC32A    ZN  1  0.266378716724  0.209200000000
CC32A    FE  1  0.227179173126  0.000000000000
CC32A    HE  1  0.301123766731  0.061020452073
CC32A    NE  1  0.305578260322  0.122698965603
CC32A  CLAL  1  0.339272049842  0.072469005789
CC32A    AG  1  0.300901042052  0.893457908130
CC32A    AU  1  0.300722862308  0.962320000000
CC32A    CU  1  0.285800308779  0.908997471504
CC32A    NI  1  0.282949432881  0.994525446633
CC32A    PB  1  0.328073452955  0.716185437439
CC32A    PD  1  0.294842930769  1.037598257516
CC32A    PT  1  0.296001099102  1.168527606863
CC32A   CAP  1  0.346773417049  0.110698234855
CC32A    FA  1  0.320723538531  0.144938011577
CC32A    CN  1  0.325178032121  0.187114168357
CC32A    NC  1  0.334087019303  0.324091246411
CC32A   OCA  1  0.293996576986  0.144938011577
CC32A   COA  1  0.347450500075  0.138767581228
CC32A   CF1  1  0.338541512893  0.102486650838
CC32A   CF2  1  0.351904993665  0.085746484010
CC32A   CF3  1  0.374177461619  0.059170695450
CC32A   HF1  1  0.286869387241  0.070011711020
CC32A   HF2  1  0.285087589805  0.072469005789
CC32A    F1  1  0.314487247504  0.153729976257
CC32A    F2  1  0.314487247504  0.135577095411
CC32A    F3  1  0.311814551349  0.130309939452
CC32A    OX  1  0.320723538531  0.144938011577
CC32A    HX  1  0.189271432669  0.089736802707
CC32A  HPER  1  0.189271432669  0.089736802707
CC32A  OPER  1  0.318427692534  0.188901923946
CC32A   LIT  1  0.284864865125  0.020196198771
CC32A   RUB  1  0.338541512893  0.162045623205
CC32A   BAR  1  0.337650614175  0.162045623205
CC32A   CAD  1  0.290165712498  0.144938011577
CC32A  ON2B  1  0.326959829558  0.163176000000
CC32A    SP  1  0.365268474438  0.280671252536
CC32A   HNP  1  0.290272620344  0.072469005789
CC32A  HNE1  1  0.280633096214  0.073666921749
CC32A  HNE2  1  0.281523994932  0.067464972838
CC32A  CN3D  1  0.338541512893  0.125520000000
CC32A  CNE1  1  0.355468588538  0.109105371453
CC32A  CNE2  1  0.354577689820  0.105847757841
CC32A   CNA  1  0.346773417049  0.110698234855
CC32A  CNA2  1  0.338541512893  0.110698234855
CC32A   CNG  1  0.347450500075  0.138767581228
CC32A  NN1C  1  0.334087019303  0.187114168357
CC32A  NN2C  1  0.334087019303  0.187114168357
CC32A  NN3I  1  0.334087019303  0.187114168357
CC32A   NNG  1  0.334087019303  0.187114168357
CC32A   FNA  1  0.320723538531  0.144938011577
CC32A  ON2M  1  0.316269044940  0.132309697301
CC32A   CN6  1  0.338541512893  0.041840000000
CC32A  CN7E  1  0.338541512893  0.041840000000
CC32A  CT2P  1  0.338541512893  0.041840000000
CC32A  CTD1  1  0.338541512893  0.041840000000
CC32A  CPD1  1  0.338541512893  0.041840000000
CC32A  CC1A  1  0.355468588538  0.109105371453
CC32A  CC1B  1  0.355468588538  0.109105371453
CC32A   CC2  1  0.354577689820  0.105847757841
CC32A   NS1  1  0.334087019303  0.187114168357
CC32A   NS2  1  0.334087019303  0.187114168357
CC32A   NHL  1  0.307360057758  0.187114168357
CC32A  CTO1  1  0.338541512893  0.041840000000
CC32A  CEL3  1  0.355468588538  0.109105371453
CC32A  CTO2  1  0.338541512893  0.041840000000
CC32A  HN3B  1  0.249451641079  0.089736802707
CC32A  CN1A  1  0.347450500075  0.110698234855
CC32A  CN3A  1  0.329632525712  0.177512086349
CC32A  CN3B  1  0.329632525712  0.177512086349
CC32A  CN3C  1  0.329632525712  0.177512086349
CC33A     C  1  0.347450500075  0.138767581228
CC33A    CA  1  0.346773417049  0.110698234855
CC33A    CC  1  0.347450500075  0.110698234855
CC33A    CD  1  0.347450500075  0.110698234855
CC33A   CE1  1  0.355468588538  0.109105371453
CC33A   CE2  1  0.354577689820  0.105847757841
CC33A   CP1  1  0.338541512893  0.041840000000
CC33A   CP2  1  0.338541512893  0.041840000000
CC33A   CP3  1  0.338541512893  0.041840000000
CC33A  CPH1  1  0.329632525712  0.093557084179
CC33A  CPH2  1  0.329632525712  0.093557084179
CC33A    CS  1  0.365268474438  0.138767581228
CC33A   CPT  1  0.334977918021  0.131646486622
CC33A    CY  1  0.346559601357  0.113045454929
CC33A   CAI  1  0.346559601357  0.113045454929
CC33A    CT  1  0.338541512893  0.041840000000
CC33A   CT1  1  0.338541512893  0.041840000000
CC33A   CT2  1  0.338541512893  0.041840000000
CC33A  CT2A  1  0.338541512893  0.041840000000
CC33A   CT3  1  0.338541512893  0.041840000000
CC33A    C3  1  0.371950214824  0.059170695450
CC33A     H  1  0.189271432669  0.089736802707
CC33A    HA  1  0.286869387241  0.062058748940
CC33A   HB1  1  0.286869387241  0.062058748940
CC33A   HB2  1  0.288651184677  0.070011711020
CC33A   HE1  1  0.280633096214  0.073666921749
CC33A   HE2  1  0.281523994932  0.067464972838
CC33A    HC  1  0.189271432669  0.089736802707
CC33A    HP  1  0.290272620344  0.072469005789
CC33A   HR1  1  0.249451641079  0.089736802707
CC33A   HR2  1  0.231633666716  0.089736802707
CC33A   HR3  1  0.300054688270  0.036952087465
CC33A    HS  1  0.209361198763  0.132309697301
CC33A   HA1  1  0.288651184677  0.088756043175
CC33A   HA2  1  0.288651184677  0.077149148019
CC33A   HA3  1  0.288651184677  0.064818249282
CC33A     N  1  0.334087019303  0.004184000000
CC33A   NC2  1  0.334087019303  0.187114168357
CC33A   NH1  1  0.307360057758  0.187114168357
CC33A   NH2  1  0.334087019303  0.187114168357
CC33A   NH3  1  0.334087019303  0.187114168357
CC33A    NP  1  0.334087019303  0.187114168357
CC33A   NR1  1  0.334087019303  0.187114168357
CC33A   NR2  1  0.334087019303  0.187114168357
CC33A   NR3  1  0.334087019303  0.187114168357
CC33A    NY  1  0.334087019303  0.187114168357
CC33A     O  1  0.293996576986  0.144938011577
CC33A    OB  1  0.293996576986  0.144938011577
CC33A    OC  1  0.320723538531  0.144938011577
CC33A   OH1  1  0.326959829558  0.163176000000
CC33A    OS  1  0.326959829558  0.163176000000
CC33A     S  1  0.347450500075  0.280671252536
CC33A    SM  1  0.345223253279  0.257919081884
CC33A    SS  1  0.365268474438  0.286840588481
CC33A  HGA1  1  0.288651184677  0.088756043175
CC33A  HGA2  1  0.288651184677  0.078275472531
CC33A  HGA3  1  0.288651184677  0.064818249282
CC33A  HGA4  1  0.280633096214  0.073666921749
CC33A  HGA5  1  0.281523994932  0.067464972838
CC33A  HGA6  1  0.286869387241  0.070011711020
CC33A  HGA7  1  0.285087589805  0.072469005789
CC33A HGAAM0  1  0.283305792369  0.070011711020
CC33A HGAAM1  1  0.283305792369  0.070011711020
CC33A HGAAM2  1  0.281523994932  0.083680000000
CC33A  HGP1  1  0.189271432669  0.089736802707
CC33A  HGP2  1  0.189271432669  0.089736802707
CC33A  HGP3  1  0.209361198763  0.132309697301
CC33A  HGP4  1  0.189271432669  0.089736802707
CC33A  HGP5  1  0.231633666716  0.089736802707
CC33A HGPAM1  1  0.247224394284  0.039692909190
CC33A HGPAM2  1  0.247224394284  0.041840000000
CC33A HGPAM3  1  0.246778944925  0.045833423612
CC33A HGR51  1  0.290272620344  0.072469005789
CC33A HGR52  1  0.249451641079  0.089736802707
CC33A HGR53  1  0.231633666716  0.089736802707
CC33A HGR61  1  0.290272620344  0.072469005789
CC33A HGR62  1  0.267269615442  0.089736802707
CC33A HGR63  1  0.249451641079  0.089736802707
CC33A HGR71  1  0.290272620344  0.072469005789
CC33A HGTIP3  1  0.189271432669  0.089736802707
CC33A CG1T1  1  0.333196120584  0.170981810495
CC33A CG1T2  1  0.346782326036  0.134409982486
CC33A CG1N1  1  0.335868816739  0.177512086349
CC33A CG2D1  1  0.355468588538  0.109105371453
CC33A CG2D2  1  0.354577689820  0.105847757841
CC33A CG2D1O  1  0.355468588538  0.109105371453
CC33A CG2D2O  1  0.355468588538  0.109105371453
CC33A CG2DC1  1  0.355468588538  0.109105371453
CC33A CG2DC2  1  0.355468588538  0.109105371453
CC33A CG2DC3  1  0.354577689820  0.105847757841
CC33A CG2N1  1  0.347450500075  0.138767581228
CC33A CG2N2  1  0.347450500075  0.138767581228
CC33A CG2O1  1  0.347450500075  0.138767581228
CC33A CG2O2  1  0.320723538531  0.130979917850
CC33A CG2O3  1  0.347450500075  0.110698234855
CC33A CG2O4  1  0.329632525712  0.102486650838
CC33A CG2O5  1  0.347450500075  0.125520000000
CC33A CG2O6  1  0.347450500075  0.110698234855
CC33A CG2O7  1  0.308518226092  0.100764063435
CC33A CG2R51  1  0.356359487256  0.093557084179
CC33A CG2R52  1  0.365268474438  0.059170695450
CC33A CG2R53  1  0.365268474438  0.059170695450
CC33A CG2R57  1  0.356359487256  0.093557084179
CC33A CG25C1  1  0.355468588538  0.109105371453
CC33A CG25C2  1  0.355468588538  0.109105371453
CC33A CG251O  1  0.355468588538  0.109105371453
CC33A CG252O  1  0.355468588538  0.109105371453
CC33A CG2R61  1  0.346773417049  0.110698234855
CC33A CG2R62  1  0.338541512893  0.125520000000
CC33A CG2R63  1  0.338541512893  0.132309697301
CC33A CG2R64  1  0.356359487256  0.083680000000
CC33A CG2R66  1  0.338541512893  0.110698234855
CC33A CG2R67  1  0.346773417049  0.110698234855
CC33A CG2RC0  1  0.334977918021  0.131646486622
CC33A CG2R71  1  0.346987232741  0.108300154755
CC33A CG2RC7  1  0.334977918021  0.131646486622
CC33A CG301  1  0.338541512893  0.041840000000
CC33A CG302  1  0.374177461619  0.059170695450
CC33A CG311  1  0.338541512893  0.041840000000
CC33A CG312  1  0.351904993665  0.085746484010
CC33A CG314  1  0.338541512893  0.041840000000
CC33A CG321  1  0.338541512893  0.041840000000
CC33A CG322  1  0.338541512893  0.102486650838
CC33A CG323  1  0.365268474438  0.138767581228
CC33A CG324  1  0.338541512893  0.041840000000
CC33A CG331  1  0.338541512893  0.041840000000
CC33A CG334  1  0.338541512893  0.041840000000
CC33A CG3C50  1  0.338541512893  0.041840000000
CC33A CG3C51  1  0.338541512893  0.041840000000
CC33A CG3C52  1  0.338541512893  0.041840000000
CC33A CG3C53  1  0.338541512893  0.041840000000
CC33A CG3C54  1  0.338541512893  0.041840000000
CC33A CG3C31  1  0.338541512893  0.041840000000
CC33A CG3C41  1  0.338541512893  0.041840000000
CC33A CG3RC1  1  0.338541512893  0.041840000000
CC33A CG3AM0  1  0.344777803920  0.110698234855
CC33A CG3AM1  1  0.345668702638  0.116852760686
CC33A CG3AM2  1  0.346559601357  0.118341390899
CC33A NG1T1  1  0.328741626994  0.177512086349
CC33A NG2D1  1  0.334087019303  0.187114168357
CC33A NG2S0  1  0.334087019303  0.004184000000
CC33A NG2S1  1  0.307360057758  0.187114168357
CC33A NG2S2  1  0.334087019303  0.187114168357
CC33A NG2S3  1  0.334087019303  0.187114168357
CC33A NG2O1  1  0.334087019303  0.187114168357
CC33A NG2P1  1  0.334087019303  0.187114168357
CC33A NG2R43  1  0.334087019303  0.187114168357
CC33A NG2R50  1  0.334087019303  0.187114168357
CC33A NG2R51  1  0.334087019303  0.187114168357
CC33A NG2R52  1  0.334087019303  0.187114168357
CC33A NG2R53  1  0.334087019303  0.187114168357
CC33A NG2R57  1  0.334087019303  0.187114168357
CC33A NG2R60  1  0.337650614175  0.102486650838
CC33A NG2R61  1  0.334087019303  0.187114168357
CC33A NG2R62  1  0.352795892384  0.093557084179
CC33A NG2R67  1  0.334087019303  0.187114168357
CC33A NG2RC0  1  0.334087019303  0.187114168357
CC33A NG301  1  0.347450500075  0.078275472531
CC33A NG311  1  0.347450500075  0.088756043175
CC33A NG321  1  0.346559601357  0.102486650838
CC33A NG331  1  0.345668702638  0.110698234855
CC33A NG3C51  1  0.334087019303  0.187114168357
CC33A NG3N1  1  0.351904993665  0.102486650838
CC33A NG3P0  1  0.334087019303  0.187114168357
CC33A NG3P1  1  0.334087019303  0.187114168357
CC33A NG3P2  1  0.334087019303  0.187114168357
CC33A NG3P3  1  0.334087019303  0.187114168357
CC33A OG2D1  1  0.293996576986  0.144938011577
CC33A OG2D2  1  0.320723538531  0.144938011577
CC33A OG2D3  1  0.293996576986  0.144938011577
CC33A OG2D4  1  0.320723538531  0.144938011577
CC33A OG2D5  1  0.320010819556  0.169954883425
CC33A OG2N1  1  0.320723538531  0.144938011577
CC33A OG2P1  1  0.320723538531  0.144938011577
CC33A OG2R50  1  0.320723538531  0.144938011577
CC33A OG3R60  1  0.316269044940  0.132309697301
CC33A OG301  1  0.316269044940  0.132309697301
CC33A OG302  1  0.316269044940  0.132309697301
CC33A OG303  1  0.316269044940  0.132309697301
CC33A OG304  1  0.316269044940  0.132309697301
CC33A OG311  1  0.326514380198  0.183381431383
CC33A OG312  1  0.325178032121  0.144938011577
CC33A OG3C31  1  0.316269044940  0.132309697301
CC33A OG3C51  1  0.316269044940  0.132309697301
CC33A OG3C61  1  0.316269044940  0.132309697301
CC33A OGTIP3  1  0.326799467788  0.163176000000
CC33A SG2D1  1  0.351904993665  0.314496560236
CC33A SG2R50  1  0.347450500075  0.280671252536
CC33A SG311  1  0.347450500075  0.280671252536
CC33A SG301  1  0.345223253279  0.257919081884
CC33A SG302  1  0.365268474438  0.286840588481
CC33A SG3O1  1  0.356359487256  0.286840588481
CC33A SG3O2  1  0.347450500075  0.247528778125
CC33A SG3O3  1  0.347450500075  0.247528778125
CC33A  FGA1  1  0.314487247504  0.153729976257
CC33A  FGA2  1  0.314487247504  0.135577095411
CC33A  FGA3  1  0.311814551349  0.130309939452
CC33A  FGP1  1  0.311814551349  0.130309939452
CC33A  FGR1  1  0.320723538531  0.144938011577
CC33A CLGA1  1  0.339432411611  0.245040988571
CC33A CLGA3  1  0.339432411611  0.232955260941
CC33A BRGA1  1  0.344777803920  0.289876023155
CC33A BRGA2  1  0.351904993665  0.304599797767
CC33A BRGA3  1  0.347450500075  0.307459952514
CC33A   SOD  1  0.294954293108  0.090610410351
CC33A   CLA  1  0.371504765465  0.162045623205
CC33A   PG0  1  0.360813980847  0.320014464673
CC33A   PG1  1  0.360813980847  0.320014464673
CC33A   PG2  1  0.360813980847  0.320014464673
CC33A  ALG1  1  0.347450500075  0.337324864189
CC33A   LPH  1  0.169270756447  0.000000000000
CC33A CLGR1  1  0.334977918021  0.200657590935
CC33A BRGR1  1  0.345668702638  0.236682781799
CC33A  IGR1  1  0.368832069310  0.301712530731
CC33A SG2P1  1  0.355798221064  0.332305491450
CC33A OG2S1  1  0.318906105146  0.157831660601
CC33A SG2P2  1  0.352314807076  0.329421919951
CC33A SEGD1  1  0.363041227642  0.330244580395
CC33A BG201  1  0.396449929572  0.081561175077
CC33A CC301  1  0.338541512893  0.041840000000
CC33A CC3062  1  0.338541512893  0.041840000000
CC33A CC311  1  0.338541512893  0.041840000000
CC33A CC3161  1  0.338541512893  0.041840000000
CC33A CC3162  1  0.338541512893  0.041840000000
CC33A CC3163  1  0.338541512893  0.041840000000
CC33A CC321  1  0.338541512893  0.041840000000
CC33A CC3261  1  0.338541512893  0.041840000000
CC33A CC3263  1  0.338541512893  0.041840000000
CC33A CC331  1  0.338541512893  0.041840000000
CC33A CC2O1  1  0.347450500075  0.138767581228
CC33A CC2O2  1  0.347450500075  0.110698234855
CC33A CC2O3  1  0.347450500075  0.125520000000
CC33A CC2O4  1  0.329632525712  0.102486650838
CC33A CC2O5  1  0.320723538531  0.130979917850
CC33A OC2D1  1  0.293996576986  0.144938011577
CC33A OC2D2  1  0.320723538531  0.144938011577
CC33A OC2D3  1  0.293996576986  0.144938011577
CC33A OC2D4  1  0.293996576986  0.144938011577
CC33A OC3C61  1  0.316269044940  0.132309697301
CC33A OC311  1  0.326514380198  0.183381431383
CC33A NC2D1  1  0.307360057758  0.187114168357
CC33A  HCP1  1  0.189271432669  0.089736802707
CC33A  HCA1  1  0.288651184677  0.088756043175
CC33A  HCA2  1  0.288651184677  0.078275472531
CC33A  HCA3  1  0.288651184677  0.064818249282
CC33A CC312  1  0.338541512893  0.041840000000
CC33A CC322  1  0.338541512893  0.041840000000
CC33A  HCR1  1  0.240542653898  0.089736802707
CC33A HCA3M  1  0.288651184677  0.064818249282
CC33A CC321C  1  0.338541512893  0.041840000000
CC33A CC321D  1  0.338541512893  0.041840000000
CC33A CC311C  1  0.338541512893  0.041840000000
CC33A CC311D  1  0.338541512893  0.041840000000
CC33A OC301  1  0.316269044940  0.132309697301
CC33A OC302  1  0.316269044940  0.132309697301
CC33A HCP1M  1  0.189271432669  0.089736802707
CC33A OC311M  1  0.326514380198  0.183381431383
CC33A OC3C5M  1  0.316269044940  0.132309697301
CC33A CC322C  1  0.338541512893  0.041840000000
CC33A HCA2C2  1  0.285087589805  0.078275472531
CC33A CC312C  1  0.338541512893  0.041840000000
CC33A HCA1C2  1  0.288651184677  0.088756043175
CC33A OC3C51  1  0.316269044940  0.132309697301
CC33A CC3152  1  0.338541512893  0.041840000000
CC33A CC3051  1  0.338541512893  0.041840000000
CC33A CC3251  1  0.338541512893  0.041840000000
CC33A CC3151  1  0.338541512893  0.041840000000
CC33A CC3153  1  0.338541512893  0.041840000000
CC33A OC2DP  1  0.320723538531  0.144938011577
CC33A OC312  1  0.326959829558  0.163176000000
CC33A OC30P  1  0.326959829558  0.163176000000
CC33A    PC  1  0.360813980847  0.320014464673
CC33A    SC  1  0.356359487256  0.286840588481
CC33A CC312D  1  0.338541512893  0.041840000000
CC33A OC303  1  0.316269044940  0.132309697301
CC33A NC311  1  0.347450500075  0.088756043175
CC33A   HN1  1  0.189271432669  0.089736802707
CC33A   HN2  1  0.189271432669  0.089736802707
CC33A   HN3  1  0.267269615442  0.089736802707
CC33A   HN4  1  0.189271432669  0.089736802707
CC33A   HN5  1  0.189271432669  0.089736802707
CC33A   HN6  1  0.286869387241  0.062058748940
CC33A   HN7  1  0.286869387241  0.062058748940
CC33A   HN8  1  0.288651184677  0.070011711020
CC33A   HN9  1  0.288651184677  0.064818249282
CC33A   NN1  1  0.334087019303  0.187114168357
CC33A   NN2  1  0.334087019303  0.187114168357
CC33A  NN2B  1  0.334087019303  0.187114168357
CC33A  NN2G  1  0.334087019303  0.187114168357
CC33A  NN2U  1  0.334087019303  0.187114168357
CC33A   NN3  1  0.334087019303  0.187114168357
CC33A  NN3A  1  0.334087019303  0.187114168357
CC33A  NN3G  1  0.334087019303  0.187114168357
CC33A   NN4  1  0.334087019303  0.187114168357
CC33A   NN6  1  0.334087019303  0.187114168357
CC33A   ON1  1  0.320723538531  0.144938011577
CC33A  ON1C  1  0.320723538531  0.144938011577
CC33A   ON2  1  0.326959829558  0.163176000000
CC33A   ON3  1  0.320723538531  0.144938011577
CC33A   ON4  1  0.326959829558  0.163176000000
CC33A   ON5  1  0.326959829558  0.163176000000
CC33A   ON6  1  0.326959829558  0.163176000000
CC33A  ON6B  1  0.326959829558  0.163176000000
CC33A   CN1  1  0.338541512893  0.132309697301
CC33A  CN1T  1  0.338541512893  0.132309697301
CC33A   CN2  1  0.338541512893  0.132309697301
CC33A   CN3  1  0.338541512893  0.125520000000
CC33A  CN3T  1  0.338541512893  0.125520000000
CC33A   CN4  1  0.338541512893  0.114583559030
CC33A   CN5  1  0.338541512893  0.114583559030
CC33A  CN5G  1  0.338541512893  0.114583559030
CC33A   CN7  1  0.338541512893  0.041840000000
CC33A  CN7B  1  0.338541512893  0.041840000000
CC33A   CN8  1  0.338541512893  0.041840000000
CC33A  CN8B  1  0.338541512893  0.041840000000
CC33A   CN9  1  0.338541512893  0.041840000000
CC33A     P  1  0.360813980847  0.320014464673
CC33A    P2  1  0.360813980847  0.320014464673
CC33A    P3  1  0.360813980847  0.320014464673
CC33A    P4  1  0.360813980847  0.320014464673
CC33A   HOL  1  0.189271432669  0.089736802707
CC33A  HAL1  1  0.286869387241  0.062058748940
CC33A  HAL2  1  0.288651184677  0.070011711020
CC33A  HAL3  1  0.288651184677  0.064818249282
CC33A   HBL  1  0.286869387241  0.062058748940
CC33A   HCL  1  0.189271432669  0.089736802707
CC33A    HL  1  0.231633666716  0.089736802707
CC33A  HEL1  1  0.280633096214  0.073666921749
CC33A  HEL2  1  0.281523994932  0.067464972838
CC33A    CL  1  0.347450500075  0.110698234855
CC33A   CCL  1  0.347450500075  0.110698234855
CC33A  CTL1  1  0.338541512893  0.041840000000
CC33A  CTL2  1  0.338541512893  0.041840000000
CC33A  CTL3  1  0.338541512893  0.041840000000
CC33A  CTL5  1  0.338541512893  0.041840000000
CC33A  CEL1  1  0.355468588538  0.109105371453
CC33A  CEL2  1  0.354577689820  0.105847757841
CC33A  CRL1  1  0.338541512893  0.041840000000
CC33A  CRL2  1  0.338541512893  0.041840000000
CC33A   OBL  1  0.293996576986  0.144938011577
CC33A   OCL  1  0.320723538531  0.144938011577
CC33A   O2L  1  0.320723538531  0.144938011577
CC33A   OHL  1  0.326959829558  0.163176000000
CC33A   OSL  1  0.316269044940  0.132309697301
CC33A  OSLP  1  0.316269044940  0.132309697301
CC33A  NH3L  1  0.334087019303  0.187114168357
CC33A   NTL  1  0.334087019303  0.187114168357
CC33A    SL  1  0.356359487256  0.286840588481
CC33A    PL  1  0.360813980847  0.320014464673
CC33A HCA1A  1  0.288651184677  0.088756043175
CC33A HCA2A  1  0.288651184677  0.078275472531
CC33A HCA3A  1  0.288651184677  0.064818249282
CC33A CC30A  1  0.338541512893  0.041840000000
CC33A CC31A  1  0.338541512893  0.041840000000
CC33A CC32A  1  0.338541512893  0.041840000000
CC33A CC33A  1  0.338541512893  0.041840000000
CC33A CC326A  1  0.338541512893  0.041840000000
CC33A HCA25A  1  0.285087589805  0.078275472531
CC33A CC325A  1  0.338541512893  0.041840000000
CC33A CC325B  1  0.338541512893  0.041840000000
CC33A OC305A  1  0.316269044940  0.132309697301
CC33A OC30A  1  0.316269044940  0.132309697301
CC33A  HSIO  1  0.189271432669  0.089736802707
CC33A  HSIA  1  0.286869387241  0.062058748940
CC33A   HAL  1  0.286869387241  0.062058748940
CC33A    AL  1  0.365268474438  0.337324864189
CC33A    SI  1  0.365268474438  0.324091246411
CC33A  SIH3  1  0.365268474438  0.324091246411
CC33A  OSIH  1  0.326959829558  0.163176000000
CC33A  OSIE  1  0.326959829558  0.163176000000
CC33A  OSIA  1  0.326959829558  0.163176000000
CC33A   OAL  1  0.326959829558  0.163176000000
CC33A    HT  1  0.189271432669  0.089736802707
CC33A    OT  1  0.326799467788  0.163176000000
CC33A   DUM  1  0.169270756447  0.000000000000
CC33A    CM  1  0.356359487256  0.138767581228
CC33A   CPA  1  0.329632525712  0.125520000000
CC33A   CPB  1  0.329632525712  0.125520000000
CC33A   CPM  1  0.329632525712  0.125520000000
CC33A   CST  1  0.308518226092  0.100764063435
CC33A  CT1X  1  0.338541512893  0.041840000000
CC33A  CT2X  1  0.338541512893  0.041840000000
CC33A  CT3X  1  0.338541512893  0.041840000000
CC33A    HB  1  0.286869387241  0.062058748940
CC33A   NPH  1  0.334087019303  0.187114168357
CC33A    OM  1  0.320723538531  0.144938011577
CC33A   OST  1  0.320010819556  0.169954883425
CC33A   POT  1  0.326403017859  0.123410269913
CC33A   CAL  1  0.291056611216  0.144938011577
CC33A    MG  1  0.274842254546  0.051243325419
CC33A   CES  1  0.356359487256  0.182376331798
CC33A    ZN  1  0.266378716724  0.209200000000
CC33A    FE  1  0.227179173126  0.000000000000
CC33A    HE  1  0.301123766731  0.061020452073
CC33A    NE  1  0.305578260322  0.122698965603
CC33A  CLAL  1  0.339272049842  0.072469005789
CC33A    AG  1  0.300901042052  0.893457908130
CC33A    AU  1  0.300722862308  0.962320000000
CC33A    CU  1  0.285800308779  0.908997471504
CC33A    NI  1  0.282949432881  0.994525446633
CC33A    PB  1  0.328073452955  0.716185437439
CC33A    PD  1  0.294842930769  1.037598257516
CC33A    PT  1  0.296001099102  1.168527606863
CC33A   CAP  1  0.346773417049  0.110698234855
CC33A    FA  1  0.320723538531  0.144938011577
CC33A    CN  1  0.325178032121  0.187114168357
CC33A    NC  1  0.334087019303  0.324091246411
CC33A   OCA  1  0.293996576986  0.144938011577
CC33A   COA  1  0.347450500075  0.138767581228
CC33A   CF1  1  0.338541512893  0.102486650838
CC33A   CF2  1  0.351904993665  0.085746484010
CC33A   CF3  1  0.374177461619  0.059170695450
CC33A   HF1  1  0.286869387241  0.070011711020
CC33A   HF2  1  0.285087589805  0.072469005789
CC33A    F1  1  0.314487247504  0.153729976257
CC33A    F2  1  0.314487247504  0.135577095411
CC33A    F3  1  0.311814551349  0.130309939452
CC33A    OX  1  0.320723538531  0.144938011577
CC33A    HX  1  0.189271432669  0.089736802707
CC33A  HPER  1  0.189271432669  0.089736802707
CC33A  OPER  1  0.318427692534  0.188901923946
CC33A   LIT  1  0.284864865125  0.020196198771
CC33A   RUB  1  0.338541512893  0.162045623205
CC33A   BAR  1  0.337650614175  0.162045623205
CC33A   CAD  1  0.290165712498  0.144938011577
CC33A  ON2B  1  0.326959829558  0.163176000000
CC33A    SP  1  0.365268474438  0.280671252536
CC33A   HNP  1  0.290272620344  0.072469005789
CC33A  HNE1  1  0.280633096214  0.073666921749
CC33A  HNE2  1  0.281523994932  0.067464972838
CC33A  CN3D  1  0.338541512893  0.125520000000
CC33A  CNE1  1  0.355468588538  0.109105371453
CC33A  CNE2  1  0.354577689820  0.105847757841
CC33A   CNA  1  0.346773417049  0.110698234855
CC33A  CNA2  1  0.338541512893  0.110698234855
CC33A   CNG  1  0.347450500075  0.138767581228
CC33A  NN1C  1  0.334087019303  0.187114168357
CC33A  NN2C  1  0.334087019303  0.187114168357
CC33A  NN3I  1  0.334087019303  0.187114168357
CC33A   NNG  1  0.334087019303  0.187114168357
CC33A   FNA  1  0.320723538531  0.144938011577
CC33A  ON2M  1  0.316269044940  0.132309697301
CC33A   CN6  1  0.338541512893  0.041840000000
CC33A  CN7E  1  0.338541512893  0.041840000000
CC33A  CT2P  1  0.338541512893  0.041840000000
CC33A  CTD1  1  0.338541512893  0.041840000000
CC33A  CPD1  1  0.338541512893  0.041840000000
CC33A  CC1A  1  0.355468588538  0.109105371453
CC33A  CC1B  1  0.355468588538  0.109105371453
CC33A   CC2  1  0.354577689820  0.105847757841
CC33A   NS1  1  0.334087019303  0.187114168357
CC33A   NS2  1  0.334087019303  0.187114168357
CC33A   NHL  1  0.307360057758  0.187114168357
CC33A  CTO1  1  0.338541512893  0.041840000000
CC33A  CEL3  1  0.355468588538  0.109105371453
CC33A  CTO2  1  0.338541512893  0.041840000000
CC33A  HN3B  1  0.249451641079  0.089736802707
CC33A  CN1A  1  0.347450500075  0.110698234855
CC33A  CN3A  1  0.329632525712  0.177512086349
CC33A  CN3B  1  0.329632525712  0.177512086349
CC33A  CN3C  1  0.329632525712  0.177512086349
CC326A     C  1  0.347450500075  0.138767581228
CC326A    CA  1  0.346773417049  0.110698234855
CC326A    CC  1  0.347450500075  0.110698234855
CC326A    CD  1  0.347450500075  0.110698234855
CC326A   CE1  1  0.355468588538  0.109105371453
CC326A   CE2  1  0.354577689820  0.105847757841
CC326A   CP1  1  0.338541512893  0.041840000000
CC326A   CP2  1  0.338541512893  0.041840000000
CC326A   CP3  1  0.338541512893  0.041840000000
CC326A  CPH1  1  0.329632525712  0.093557084179
CC326A  CPH2  1  0.329632525712  0.093557084179
CC326A    CS  1  0.365268474438  0.138767581228
CC326A   CPT  1  0.334977918021  0.131646486622
CC326A    CY  1  0.346559601357  0.113045454929
CC326A   CAI  1  0.346559601357  0.113045454929
CC326A    CT  1  0.338541512893  0.041840000000
CC326A   CT1  1  0.338541512893  0.041840000000
CC326A   CT2  1  0.338541512893  0.041840000000
CC326A  CT2A  1  0.338541512893  0.041840000000
CC326A   CT3  1  0.338541512893  0.041840000000
CC326A    C3  1  0.371950214824  0.059170695450
CC326A     H  1  0.189271432669  0.089736802707
CC326A    HA  1  0.286869387241  0.062058748940
CC326A   HB1  1  0.286869387241  0.062058748940
CC326A   HB2  1  0.288651184677  0.070011711020
CC326A   HE1  1  0.280633096214  0.073666921749
CC326A   HE2  1  0.281523994932  0.067464972838
CC326A    HC  1  0.189271432669  0.089736802707
CC326A    HP  1  0.290272620344  0.072469005789
CC326A   HR1  1  0.249451641079  0.089736802707
CC326A   HR2  1  0.231633666716  0.089736802707
CC326A   HR3  1  0.300054688270  0.036952087465
CC326A    HS  1  0.209361198763  0.132309697301
CC326A   HA1  1  0.288651184677  0.088756043175
CC326A   HA2  1  0.288651184677  0.077149148019
CC326A   HA3  1  0.288651184677  0.064818249282
CC326A     N  1  0.334087019303  0.004184000000
CC326A   NC2  1  0.334087019303  0.187114168357
CC326A   NH1  1  0.307360057758  0.187114168357
CC326A   NH2  1  0.334087019303  0.187114168357
CC326A   NH3  1  0.334087019303  0.187114168357
CC326A    NP  1  0.334087019303  0.187114168357
CC326A   NR1  1  0.334087019303  0.187114168357
CC326A   NR2  1  0.334087019303  0.187114168357
CC326A   NR3  1  0.334087019303  0.187114168357
CC326A    NY  1  0.334087019303  0.187114168357
CC326A     O  1  0.293996576986  0.144938011577
CC326A    OB  1  0.293996576986  0.144938011577
CC326A    OC  1  0.320723538531  0.144938011577
CC326A   OH1  1  0.326959829558  0.163176000000
CC326A    OS  1  0.326959829558  0.163176000000
CC326A     S  1  0.347450500075  0.280671252536
CC326A    SM  1  0.345223253279  0.257919081884
CC326A    SS  1  0.365268474438  0.286840588481
CC326A  HGA1  1  0.288651184677  0.088756043175
CC326A  HGA2  1  0.288651184677  0.078275472531
CC326A  HGA3  1  0.288651184677  0.064818249282
CC326A  HGA4  1  0.280633096214  0.073666921749
CC326A  HGA5  1  0.281523994932  0.067464972838
CC326A  HGA6  1  0.286869387241  0.070011711020
CC326A  HGA7  1  0.285087589805  0.072469005789
CC326A HGAAM0  1  0.283305792369  0.070011711020
CC326A HGAAM1  1  0.283305792369  0.070011711020
CC326A HGAAM2  1  0.281523994932  0.083680000000
CC326A  HGP1  1  0.189271432669  0.089736802707
CC326A  HGP2  1  0.189271432669  0.089736802707
CC326A  HGP3  1  0.209361198763  0.132309697301
CC326A  HGP4  1  0.189271432669  0.089736802707
CC326A  HGP5  1  0.231633666716  0.089736802707
CC326A HGPAM1  1  0.247224394284  0.039692909190
CC326A HGPAM2  1  0.247224394284  0.041840000000
CC326A HGPAM3  1  0.246778944925  0.045833423612
CC326A HGR51  1  0.290272620344  0.072469005789
CC326A HGR52  1  0.249451641079  0.089736802707
CC326A HGR53  1  0.231633666716  0.089736802707
CC326A HGR61  1  0.290272620344  0.072469005789
CC326A HGR62  1  0.267269615442  0.089736802707
CC326A HGR63  1  0.249451641079  0.089736802707
CC326A HGR71  1  0.290272620344  0.072469005789
CC326A HGTIP3  1  0.189271432669  0.089736802707
CC326A CG1T1  1  0.333196120584  0.170981810495
CC326A CG1T2  1  0.346782326036  0.134409982486
CC326A CG1N1  1  0.335868816739  0.177512086349
CC326A CG2D1  1  0.355468588538  0.109105371453
CC326A CG2D2  1  0.354577689820  0.105847757841
CC326A CG2D1O  1  0.355468588538  0.109105371453
CC326A CG2D2O  1  0.355468588538  0.109105371453
CC326A CG2DC1  1  0.355468588538  0.109105371453
CC326A CG2DC2  1  0.355468588538  0.109105371453
CC326A CG2DC3  1  0.354577689820  0.105847757841
CC326A CG2N1  1  0.347450500075  0.138767581228
CC326A CG2N2  1  0.347450500075  0.138767581228
CC326A CG2O1  1  0.347450500075  0.138767581228
CC326A CG2O2  1  0.320723538531  0.130979917850
CC326A CG2O3  1  0.347450500075  0.110698234855
CC326A CG2O4  1  0.329632525712  0.102486650838
CC326A CG2O5  1  0.347450500075  0.125520000000
CC326A CG2O6  1  0.347450500075  0.110698234855
CC326A CG2O7  1  0.308518226092  0.100764063435
CC326A CG2R51  1  0.356359487256  0.093557084179
CC326A CG2R52  1  0.365268474438  0.059170695450
CC326A CG2R53  1  0.365268474438  0.059170695450
CC326A CG2R57  1  0.356359487256  0.093557084179
CC326A CG25C1  1  0.355468588538  0.109105371453
CC326A CG25C2  1  0.355468588538  0.109105371453
CC326A CG251O  1  0.355468588538  0.109105371453
CC326A CG252O  1  0.355468588538  0.109105371453
CC326A CG2R61  1  0.346773417049  0.110698234855
CC326A CG2R62  1  0.338541512893  0.125520000000
CC326A CG2R63  1  0.338541512893  0.132309697301
CC326A CG2R64  1  0.356359487256  0.083680000000
CC326A CG2R66  1  0.338541512893  0.110698234855
CC326A CG2R67  1  0.346773417049  0.110698234855
CC326A CG2RC0  1  0.334977918021  0.131646486622
CC326A CG2R71  1  0.346987232741  0.108300154755
CC326A CG2RC7  1  0.334977918021  0.131646486622
CC326A CG301  1  0.338541512893  0.041840000000
CC326A CG302  1  0.374177461619  0.059170695450
CC326A CG311  1  0.338541512893  0.041840000000
CC326A CG312  1  0.351904993665  0.085746484010
CC326A CG314  1  0.338541512893  0.041840000000
CC326A CG321  1  0.338541512893  0.041840000000
CC326A CG322  1  0.338541512893  0.102486650838
CC326A CG323  1  0.365268474438  0.138767581228
CC326A CG324  1  0.338541512893  0.041840000000
CC326A CG331  1  0.338541512893  0.041840000000
CC326A CG334  1  0.338541512893  0.041840000000
CC326A CG3C50  1  0.338541512893  0.041840000000
CC326A CG3C51  1  0.338541512893  0.041840000000
CC326A CG3C52  1  0.338541512893  0.041840000000
CC326A CG3C53  1  0.338541512893  0.041840000000
CC326A CG3C54  1  0.338541512893  0.041840000000
CC326A CG3C31  1  0.338541512893  0.041840000000
CC326A CG3C41  1  0.338541512893  0.041840000000
CC326A CG3RC1  1  0.338541512893  0.041840000000
CC326A CG3AM0  1  0.344777803920  0.110698234855
CC326A CG3AM1  1  0.345668702638  0.116852760686
CC326A CG3AM2  1  0.346559601357  0.118341390899
CC326A NG1T1  1  0.328741626994  0.177512086349
CC326A NG2D1  1  0.334087019303  0.187114168357
CC326A NG2S0  1  0.334087019303  0.004184000000
CC326A NG2S1  1  0.307360057758  0.187114168357
CC326A NG2S2  1  0.334087019303  0.187114168357
CC326A NG2S3  1  0.334087019303  0.187114168357
CC326A NG2O1  1  0.334087019303  0.187114168357
CC326A NG2P1  1  0.334087019303  0.187114168357
CC326A NG2R43  1  0.334087019303  0.187114168357
CC326A NG2R50  1  0.334087019303  0.187114168357
CC326A NG2R51  1  0.334087019303  0.187114168357
CC326A NG2R52  1  0.334087019303  0.187114168357
CC326A NG2R53  1  0.334087019303  0.187114168357
CC326A NG2R57  1  0.334087019303  0.187114168357
CC326A NG2R60  1  0.337650614175  0.102486650838
CC326A NG2R61  1  0.334087019303  0.187114168357
CC326A NG2R62  1  0.352795892384  0.093557084179
CC326A NG2R67  1  0.334087019303  0.187114168357
CC326A NG2RC0  1  0.334087019303  0.187114168357
CC326A NG301  1  0.347450500075  0.078275472531
CC326A NG311  1  0.347450500075  0.088756043175
CC326A NG321  1  0.346559601357  0.102486650838
CC326A NG331  1  0.345668702638  0.110698234855
CC326A NG3C51  1  0.334087019303  0.187114168357
CC326A NG3N1  1  0.351904993665  0.102486650838
CC326A NG3P0  1  0.334087019303  0.187114168357
CC326A NG3P1  1  0.334087019303  0.187114168357
CC326A NG3P2  1  0.334087019303  0.187114168357
CC326A NG3P3  1  0.334087019303  0.187114168357
CC326A OG2D1  1  0.293996576986  0.144938011577
CC326A OG2D2  1  0.320723538531  0.144938011577
CC326A OG2D3  1  0.293996576986  0.144938011577
CC326A OG2D4  1  0.320723538531  0.144938011577
CC326A OG2D5  1  0.320010819556  0.169954883425
CC326A OG2N1  1  0.320723538531  0.144938011577
CC326A OG2P1  1  0.320723538531  0.144938011577
CC326A OG2R50  1  0.320723538531  0.144938011577
CC326A OG3R60  1  0.316269044940  0.132309697301
CC326A OG301  1  0.316269044940  0.132309697301
CC326A OG302  1  0.316269044940  0.132309697301
CC326A OG303  1  0.316269044940  0.132309697301
CC326A OG304  1  0.316269044940  0.132309697301
CC326A OG311  1  0.326514380198  0.183381431383
CC326A OG312  1  0.325178032121  0.144938011577
CC326A OG3C31  1  0.316269044940  0.132309697301
CC326A OG3C51  1  0.316269044940  0.132309697301
CC326A OG3C61  1  0.316269044940  0.132309697301
CC326A OGTIP3  1  0.326799467788  0.163176000000
CC326A SG2D1  1  0.351904993665  0.314496560236
CC326A SG2R50  1  0.347450500075  0.280671252536
CC326A SG311  1  0.347450500075  0.280671252536
CC326A SG301  1  0.345223253279  0.257919081884
CC326A SG302  1  0.365268474438  0.286840588481
CC326A SG3O1  1  0.356359487256  0.286840588481
CC326A SG3O2  1  0.347450500075  0.247528778125
CC326A SG3O3  1  0.347450500075  0.247528778125
CC326A  FGA1  1  0.314487247504  0.153729976257
CC326A  FGA2  1  0.314487247504  0.135577095411
CC326A  FGA3  1  0.311814551349  0.130309939452
CC326A  FGP1  1  0.311814551349  0.130309939452
CC326A  FGR1  1  0.320723538531  0.144938011577
CC326A CLGA1  1  0.339432411611  0.245040988571
CC326A CLGA3  1  0.339432411611  0.232955260941
CC326A BRGA1  1  0.344777803920  0.289876023155
CC326A BRGA2  1  0.351904993665  0.304599797767
CC326A BRGA3  1  0.347450500075  0.307459952514
CC326A   SOD  1  0.294954293108  0.090610410351
CC326A   CLA  1  0.371504765465  0.162045623205
CC326A   PG0  1  0.360813980847  0.320014464673
CC326A   PG1  1  0.360813980847  0.320014464673
CC326A   PG2  1  0.360813980847  0.320014464673
CC326A  ALG1  1  0.347450500075  0.337324864189
CC326A   LPH  1  0.169270756447  0.000000000000
CC326A CLGR1  1  0.334977918021  0.200657590935
CC326A BRGR1  1  0.345668702638  0.236682781799
CC326A  IGR1  1  0.368832069310  0.301712530731
CC326A SG2P1  1  0.355798221064  0.332305491450
CC326A OG2S1  1  0.318906105146  0.157831660601
CC326A SG2P2  1  0.352314807076  0.329421919951
CC326A SEGD1  1  0.363041227642  0.330244580395
CC326A BG201  1  0.396449929572  0.081561175077
CC326A CC301  1  0.338541512893  0.041840000000
CC326A CC3062  1  0.338541512893  0.041840000000
CC326A CC311  1  0.338541512893  0.041840000000
CC326A CC3161  1  0.338541512893  0.041840000000
CC326A CC3162  1  0.338541512893  0.041840000000
CC326A CC3163  1  0.338541512893  0.041840000000
CC326A CC321  1  0.338541512893  0.041840000000
CC326A CC3261  1  0.338541512893  0.041840000000
CC326A CC3263  1  0.338541512893  0.041840000000
CC326A CC331  1  0.338541512893  0.041840000000
CC326A CC2O1  1  0.347450500075  0.138767581228
CC326A CC2O2  1  0.347450500075  0.110698234855
CC326A CC2O3  1  0.347450500075  0.125520000000
CC326A CC2O4  1  0.329632525712  0.102486650838
CC326A CC2O5  1  0.320723538531  0.130979917850
CC326A OC2D1  1  0.293996576986  0.144938011577
CC326A OC2D2  1  0.320723538531  0.144938011577
CC326A OC2D3  1  0.293996576986  0.144938011577
CC326A OC2D4  1  0.293996576986  0.144938011577
CC326A OC3C61  1  0.316269044940  0.132309697301
CC326A OC311  1  0.326514380198  0.183381431383
CC326A NC2D1  1  0.307360057758  0.187114168357
CC326A  HCP1  1  0.189271432669  0.089736802707
CC326A  HCA1  1  0.288651184677  0.088756043175
CC326A  HCA2  1  0.288651184677  0.078275472531
CC326A  HCA3  1  0.288651184677  0.064818249282
CC326A CC312  1  0.338541512893  0.041840000000
CC326A CC322  1  0.338541512893  0.041840000000
CC326A  HCR1  1  0.240542653898  0.089736802707
CC326A HCA3M  1  0.288651184677  0.064818249282
CC326A CC321C  1  0.338541512893  0.041840000000
CC326A CC321D  1  0.338541512893  0.041840000000
CC326A CC311C  1  0.338541512893  0.041840000000
CC326A CC311D  1  0.338541512893  0.041840000000
CC326A OC301  1  0.316269044940  0.132309697301
CC326A OC302  1  0.316269044940  0.132309697301
CC326A HCP1M  1  0.189271432669  0.089736802707
CC326A OC311M  1  0.326514380198  0.183381431383
CC326A OC3C5M  1  0.316269044940  0.132309697301
CC326A CC322C  1  0.338541512893  0.041840000000
CC326A HCA2C2  1  0.285087589805  0.078275472531
CC326A CC312C  1  0.338541512893  0.041840000000
CC326A HCA1C2  1  0.288651184677  0.088756043175
CC326A OC3C51  1  0.316269044940  0.132309697301
CC326A CC3152  1  0.338541512893  0.041840000000
CC326A CC3051  1  0.338541512893  0.041840000000
CC326A CC3251  1  0.338541512893  0.041840000000
CC326A CC3151  1  0.338541512893  0.041840000000
CC326A CC3153  1  0.338541512893  0.041840000000
CC326A OC2DP  1  0.320723538531  0.144938011577
CC326A OC312  1  0.326959829558  0.163176000000
CC326A OC30P  1  0.326959829558  0.163176000000
CC326A    PC  1  0.360813980847  0.320014464673
CC326A    SC  1  0.356359487256  0.286840588481
CC326A CC312D  1  0.338541512893  0.041840000000
CC326A OC303  1  0.316269044940  0.132309697301
CC326A NC311  1  0.347450500075  0.088756043175
CC326A   HN1  1  0.189271432669  0.089736802707
CC326A   HN2  1  0.189271432669  0.089736802707
CC326A   HN3  1  0.267269615442  0.089736802707
CC326A   HN4  1  0.189271432669  0.089736802707
CC326A   HN5  1  0.189271432669  0.089736802707
CC326A   HN6  1  0.286869387241  0.062058748940
CC326A   HN7  1  0.286869387241  0.062058748940
CC326A   HN8  1  0.288651184677  0.070011711020
CC326A   HN9  1  0.288651184677  0.064818249282
CC326A   NN1  1  0.334087019303  0.187114168357
CC326A   NN2  1  0.334087019303  0.187114168357
CC326A  NN2B  1  0.334087019303  0.187114168357
CC326A  NN2G  1  0.334087019303  0.187114168357
CC326A  NN2U  1  0.334087019303  0.187114168357
CC326A   NN3  1  0.334087019303  0.187114168357
CC326A  NN3A  1  0.334087019303  0.187114168357
CC326A  NN3G  1  0.334087019303  0.187114168357
CC326A   NN4  1  0.334087019303  0.187114168357
CC326A   NN6  1  0.334087019303  0.187114168357
CC326A   ON1  1  0.320723538531  0.144938011577
CC326A  ON1C  1  0.320723538531  0.144938011577
CC326A   ON2  1  0.326959829558  0.163176000000
CC326A   ON3  1  0.320723538531  0.144938011577
CC326A   ON4  1  0.326959829558  0.163176000000
CC326A   ON5  1  0.326959829558  0.163176000000
CC326A   ON6  1  0.326959829558  0.163176000000
CC326A  ON6B  1  0.326959829558  0.163176000000
CC326A   CN1  1  0.338541512893  0.132309697301
CC326A  CN1T  1  0.338541512893  0.132309697301
CC326A   CN2  1  0.338541512893  0.132309697301
CC326A   CN3  1  0.338541512893  0.125520000000
CC326A  CN3T  1  0.338541512893  0.125520000000
CC326A   CN4  1  0.338541512893  0.114583559030
CC326A   CN5  1  0.338541512893  0.114583559030
CC326A  CN5G  1  0.338541512893  0.114583559030
CC326A   CN7  1  0.338541512893  0.041840000000
CC326A  CN7B  1  0.338541512893  0.041840000000
CC326A   CN8  1  0.338541512893  0.041840000000
CC326A  CN8B  1  0.338541512893  0.041840000000
CC326A   CN9  1  0.338541512893  0.041840000000
CC326A     P  1  0.360813980847  0.320014464673
CC326A    P2  1  0.360813980847  0.320014464673
CC326A    P3  1  0.360813980847  0.320014464673
CC326A    P4  1  0.360813980847  0.320014464673
CC326A   HOL  1  0.189271432669  0.089736802707
CC326A  HAL1  1  0.286869387241  0.062058748940
CC326A  HAL2  1  0.288651184677  0.070011711020
CC326A  HAL3  1  0.288651184677  0.064818249282
CC326A   HBL  1  0.286869387241  0.062058748940
CC326A   HCL  1  0.189271432669  0.089736802707
CC326A    HL  1  0.231633666716  0.089736802707
CC326A  HEL1  1  0.280633096214  0.073666921749
CC326A  HEL2  1  0.281523994932  0.067464972838
CC326A    CL  1  0.347450500075  0.110698234855
CC326A   CCL  1  0.347450500075  0.110698234855
CC326A  CTL1  1  0.338541512893  0.041840000000
CC326A  CTL2  1  0.338541512893  0.041840000000
CC326A  CTL3  1  0.338541512893  0.041840000000
CC326A  CTL5  1  0.338541512893  0.041840000000
CC326A  CEL1  1  0.355468588538  0.109105371453
CC326A  CEL2  1  0.354577689820  0.105847757841
CC326A  CRL1  1  0.338541512893  0.041840000000
CC326A  CRL2  1  0.338541512893  0.041840000000
CC326A   OBL  1  0.293996576986  0.144938011577
CC326A   OCL  1  0.320723538531  0.144938011577
CC326A   O2L  1  0.320723538531  0.144938011577
CC326A   OHL  1  0.326959829558  0.163176000000
CC326A   OSL  1  0.316269044940  0.132309697301
CC326A  OSLP  1  0.316269044940  0.132309697301
CC326A  NH3L  1  0.334087019303  0.187114168357
CC326A   NTL  1  0.334087019303  0.187114168357
CC326A    SL  1  0.356359487256  0.286840588481
CC326A    PL  1  0.360813980847  0.320014464673
CC326A HCA1A  1  0.288651184677  0.088756043175
CC326A HCA2A  1  0.288651184677  0.078275472531
CC326A HCA3A  1  0.288651184677  0.064818249282
CC326A CC30A  1  0.338541512893  0.041840000000
CC326A CC31A  1  0.338541512893  0.041840000000
CC326A CC32A  1  0.338541512893  0.041840000000
CC326A CC33A  1  0.338541512893  0.041840000000
CC326A CC326A  1  0.338541512893  0.041840000000
CC326A HCA25A  1  0.285087589805  0.078275472531
CC326A CC325A  1  0.338541512893  0.041840000000
CC326A CC325B  1  0.338541512893  0.041840000000
CC326A OC305A  1  0.316269044940  0.132309697301
CC326A OC30A  1  0.316269044940  0.132309697301
CC326A  HSIO  1  0.189271432669  0.089736802707
CC326A  HSIA  1  0.286869387241  0.062058748940
CC326A   HAL  1  0.286869387241  0.062058748940
CC326A    AL  1  0.365268474438  0.337324864189
CC326A    SI  1  0.365268474438  0.324091246411
CC326A  SIH3  1  0.365268474438  0.324091246411
CC326A  OSIH  1  0.326959829558  0.163176000000
CC326A  OSIE  1  0.326959829558  0.163176000000
CC326A  OSIA  1  0.326959829558  0.163176000000
CC326A   OAL  1  0.326959829558  0.163176000000
CC326A    HT  1  0.189271432669  0.089736802707
CC326A    OT  1  0.326799467788  0.163176000000
CC326A   DUM  1  0.169270756447  0.000000000000
CC326A    CM  1  0.356359487256  0.138767581228
CC326A   CPA  1  0.329632525712  0.125520000000
CC326A   CPB  1  0.329632525712  0.125520000000
CC326A   CPM  1  0.329632525712  0.125520000000
CC326A   CST  1  0.308518226092  0.100764063435
CC326A  CT1X  1  0.338541512893  0.041840000000
CC326A  CT2X  1  0.338541512893  0.041840000000
CC326A  CT3X  1  0.338541512893  0.041840000000
CC326A    HB  1  0.286869387241  0.062058748940
CC326A   NPH  1  0.334087019303  0.187114168357
CC326A    OM  1  0.320723538531  0.144938011577
CC326A   OST  1  0.320010819556  0.169954883425
CC326A   POT  1  0.326403017859  0.123410269913
CC326A   CAL  1  0.291056611216  0.144938011577
CC326A    MG  1  0.274842254546  0.051243325419
CC326A   CES  1  0.356359487256  0.182376331798
CC326A    ZN  1  0.266378716724  0.209200000000
CC326A    FE  1  0.227179173126  0.000000000000
CC326A    HE  1  0.301123766731  0.061020452073
CC326A    NE  1  0.305578260322  0.122698965603
CC326A  CLAL  1  0.339272049842  0.072469005789
CC326A    AG  1  0.300901042052  0.893457908130
CC326A    AU  1  0.300722862308  0.962320000000
CC326A    CU  1  0.285800308779  0.908997471504
CC326A    NI  1  0.282949432881  0.994525446633
CC326A    PB  1  0.328073452955  0.716185437439
CC326A    PD  1  0.294842930769  1.037598257516
CC326A    PT  1  0.296001099102  1.168527606863
CC326A   CAP  1  0.346773417049  0.110698234855
CC326A    FA  1  0.320723538531  0.144938011577
CC326A    CN  1  0.325178032121  0.187114168357
CC326A    NC  1  0.334087019303  0.324091246411
CC326A   OCA  1  0.293996576986  0.144938011577
CC326A   COA  1  0.347450500075  0.138767581228
CC326A   CF1  1  0.338541512893  0.102486650838
CC326A   CF2  1  0.351904993665  0.085746484010
CC326A   CF3  1  0.374177461619  0.059170695450
CC326A   HF1  1  0.286869387241  0.070011711020
CC326A   HF2  1  0.285087589805  0.072469005789
CC326A    F1  1  0.314487247504  0.153729976257
CC326A    F2  1  0.314487247504  0.135577095411
CC326A    F3  1  0.311814551349  0.130309939452
CC326A    OX  1  0.320723538531  0.144938011577
CC326A    HX  1  0.189271432669  0.089736802707
CC326A  HPER  1  0.189271432669  0.089736802707
CC326A  OPER  1  0.318427692534  0.188901923946
CC326A   LIT  1  0.284864865125  0.020196198771
CC326A   RUB  1  0.338541512893  0.162045623205
CC326A   BAR  1  0.337650614175  0.162045623205
CC326A   CAD  1  0.290165712498  0.144938011577
CC326A  ON2B  1  0.326959829558  0.163176000000
CC326A    SP  1  0.365268474438  0.280671252536
CC326A   HNP  1  0.290272620344  0.072469005789
CC326A  HNE1  1  0.280633096214  0.073666921749
CC326A  HNE2  1  0.281523994932  0.067464972838
CC326A  CN3D  1  0.338541512893  0.125520000000
CC326A  CNE1  1  0.355468588538  0.109105371453
CC326A  CNE2  1  0.354577689820  0.105847757841
CC326A   CNA  1  0.346773417049  0.110698234855
CC326A  CNA2  1  0.338541512893  0.110698234855
CC326A   CNG  1  0.347450500075  0.138767581228
CC326A  NN1C  1  0.334087019303  0.187114168357
CC326A  NN2C  1  0.334087019303  0.187114168357
CC326A  NN3I  1  0.334087019303  0.187114168357
CC326A   NNG  1  0.334087019303  0.187114168357
CC326A   FNA  1  0.320723538531  0.144938011577
CC326A  ON2M  1  0.316269044940  0.132309697301
CC326A   CN6  1  0.338541512893  0.041840000000
CC326A  CN7E  1  0.338541512893  0.041840000000
CC326A  CT2P  1  0.338541512893  0.041840000000
CC326A  CTD1  1  0.338541512893  0.041840000000
CC326A  CPD1  1  0.338541512893  0.041840000000
CC326A  CC1A  1  0.355468588538  0.109105371453
CC326A  CC1B  1  0.355468588538  0.109105371453
CC326A   CC2  1  0.354577689820  0.105847757841
CC326A   NS1  1  0.334087019303  0.187114168357
CC326A   NS2  1  0.334087019303  0.187114168357
CC326A   NHL  1  0.307360057758  0.187114168357
CC326A  CTO1  1  0.338541512893  0.041840000000
CC326A  CEL3  1  0.355468588538  0.109105371453
CC326A  CTO2  1  0.338541512893  0.041840000000
CC326A  HN3B  1  0.249451641079  0.089736802707
CC326A  CN1A  1  0.347450500075  0.110698234855
CC326A  CN3A  1  0.329632525712  0.177512086349
CC326A  CN3B  1  0.329632525712  0.177512086349
CC326A  CN3C  1  0.329632525712  0.177512086349
CC325A     C  1  0.347450500075  0.138767581228
CC325A    CA  1  0.346773417049  0.110698234855
CC325A    CC  1  0.347450500075  0.110698234855
CC325A    CD  1  0.347450500075  0.110698234855
CC325A   CE1  1  0.355468588538  0.109105371453
CC325A   CE2  1  0.354577689820  0.105847757841
CC325A   CP1  1  0.338541512893  0.041840000000
CC325A   CP2  1  0.338541512893  0.041840000000
CC325A   CP3  1  0.338541512893  0.041840000000
CC325A  CPH1  1  0.329632525712  0.093557084179
CC325A  CPH2  1  0.329632525712  0.093557084179
CC325A    CS  1  0.365268474438  0.138767581228
CC325A   CPT  1  0.334977918021  0.131646486622
CC325A    CY  1  0.346559601357  0.113045454929
CC325A   CAI  1  0.346559601357  0.113045454929
CC325A    CT  1  0.338541512893  0.041840000000
CC325A   CT1  1  0.338541512893  0.041840000000
CC325A   CT2  1  0.338541512893  0.041840000000
CC325A  CT2A  1  0.338541512893  0.041840000000
CC325A   CT3  1  0.338541512893  0.041840000000
CC325A    C3  1  0.371950214824  0.059170695450
CC325A     H  1  0.189271432669  0.089736802707
CC325A    HA  1  0.286869387241  0.062058748940
CC325A   HB1  1  0.286869387241  0.062058748940
CC325A   HB2  1  0.288651184677  0.070011711020
CC325A   HE1  1  0.280633096214  0.073666921749
CC325A   HE2  1  0.281523994932  0.067464972838
CC325A    HC  1  0.189271432669  0.089736802707
CC325A    HP  1  0.290272620344  0.072469005789
CC325A   HR1  1  0.249451641079  0.089736802707
CC325A   HR2  1  0.231633666716  0.089736802707
CC325A   HR3  1  0.300054688270  0.036952087465
CC325A    HS  1  0.209361198763  0.132309697301
CC325A   HA1  1  0.288651184677  0.088756043175
CC325A   HA2  1  0.288651184677  0.077149148019
CC325A   HA3  1  0.288651184677  0.064818249282
CC325A     N  1  0.334087019303  0.004184000000
CC325A   NC2  1  0.334087019303  0.187114168357
CC325A   NH1  1  0.307360057758  0.187114168357
CC325A   NH2  1  0.334087019303  0.187114168357
CC325A   NH3  1  0.334087019303  0.187114168357
CC325A    NP  1  0.334087019303  0.187114168357
CC325A   NR1  1  0.334087019303  0.187114168357
CC325A   NR2  1  0.334087019303  0.187114168357
CC325A   NR3  1  0.334087019303  0.187114168357
CC325A    NY  1  0.334087019303  0.187114168357
CC325A     O  1  0.293996576986  0.144938011577
CC325A    OB  1  0.293996576986  0.144938011577
CC325A    OC  1  0.320723538531  0.144938011577
CC325A   OH1  1  0.326959829558  0.163176000000
CC325A    OS  1  0.326959829558  0.163176000000
CC325A     S  1  0.347450500075  0.280671252536
CC325A    SM  1  0.345223253279  0.257919081884
CC325A    SS  1  0.365268474438  0.286840588481
CC325A  HGA1  1  0.288651184677  0.088756043175
CC325A  HGA2  1  0.288651184677  0.078275472531
CC325A  HGA3  1  0.288651184677  0.064818249282
CC325A  HGA4  1  0.280633096214  0.073666921749
CC325A  HGA5  1  0.281523994932  0.067464972838
CC325A  HGA6  1  0.286869387241  0.070011711020
CC325A  HGA7  1  0.285087589805  0.072469005789
CC325A HGAAM0  1  0.283305792369  0.070011711020
CC325A HGAAM1  1  0.283305792369  0.070011711020
CC325A HGAAM2  1  0.281523994932  0.083680000000
CC325A  HGP1  1  0.189271432669  0.089736802707
CC325A  HGP2  1  0.189271432669  0.089736802707
CC325A  HGP3  1  0.209361198763  0.132309697301
CC325A  HGP4  1  0.189271432669  0.089736802707
CC325A  HGP5  1  0.231633666716  0.089736802707
CC325A HGPAM1  1  0.247224394284  0.039692909190
CC325A HGPAM2  1  0.247224394284  0.041840000000
CC325A HGPAM3  1  0.246778944925  0.045833423612
CC325A HGR51  1  0.290272620344  0.072469005789
CC325A HGR52  1  0.249451641079  0.089736802707
CC325A HGR53  1  0.231633666716  0.089736802707
CC325A HGR61  1  0.290272620344  0.072469005789
CC325A HGR62  1  0.267269615442  0.089736802707
CC325A HGR63  1  0.249451641079  0.089736802707
CC325A HGR71  1  0.290272620344  0.072469005789
CC325A HGTIP3  1  0.189271432669  0.089736802707
CC325A CG1T1  1  0.333196120584  0.170981810495
CC325A CG1T2  1  0.346782326036  0.134409982486
CC325A CG1N1  1  0.335868816739  0.177512086349
CC325A CG2D1  1  0.355468588538  0.109105371453
CC325A CG2D2  1  0.354577689820  0.105847757841
CC325A CG2D1O  1  0.355468588538  0.109105371453
CC325A CG2D2O  1  0.355468588538  0.109105371453
CC325A CG2DC1  1  0.355468588538  0.109105371453
CC325A CG2DC2  1  0.355468588538  0.109105371453
CC325A CG2DC3  1  0.354577689820  0.105847757841
CC325A CG2N1  1  0.347450500075  0.138767581228
CC325A CG2N2  1  0.347450500075  0.138767581228
CC325A CG2O1  1  0.347450500075  0.138767581228
CC325A CG2O2  1  0.320723538531  0.130979917850
CC325A CG2O3  1  0.347450500075  0.110698234855
CC325A CG2O4  1  0.329632525712  0.102486650838
CC325A CG2O5  1  0.347450500075  0.125520000000
CC325A CG2O6  1  0.347450500075  0.110698234855
CC325A CG2O7  1  0.308518226092  0.100764063435
CC325A CG2R51  1  0.356359487256  0.093557084179
CC325A CG2R52  1  0.365268474438  0.059170695450
CC325A CG2R53  1  0.365268474438  0.059170695450
CC325A CG2R57  1  0.356359487256  0.093557084179
CC325A CG25C1  1  0.355468588538  0.109105371453
CC325A CG25C2  1  0.355468588538  0.109105371453
CC325A CG251O  1  0.355468588538  0.109105371453
CC325A CG252O  1  0.355468588538  0.109105371453
CC325A CG2R61  1  0.346773417049  0.110698234855
CC325A CG2R62  1  0.338541512893  0.125520000000
CC325A CG2R63  1  0.338541512893  0.132309697301
CC325A CG2R64  1  0.356359487256  0.083680000000
CC325A CG2R66  1  0.338541512893  0.110698234855
CC325A CG2R67  1  0.346773417049  0.110698234855
CC325A CG2RC0  1  0.334977918021  0.131646486622
CC325A CG2R71  1  0.346987232741  0.108300154755
CC325A CG2RC7  1  0.334977918021  0.131646486622
CC325A CG301  1  0.338541512893  0.041840000000
CC325A CG302  1  0.374177461619  0.059170695450
CC325A CG311  1  0.338541512893  0.041840000000
CC325A CG312  1  0.351904993665  0.085746484010
CC325A CG314  1  0.338541512893  0.041840000000
CC325A CG321  1  0.338541512893  0.041840000000
CC325A CG322  1  0.338541512893  0.102486650838
CC325A CG323  1  0.365268474438  0.138767581228
CC325A CG324  1  0.338541512893  0.041840000000
CC325A CG331  1  0.338541512893  0.041840000000
CC325A CG334  1  0.338541512893  0.041840000000
CC325A CG3C50  1  0.338541512893  0.041840000000
CC325A CG3C51  1  0.338541512893  0.041840000000
CC325A CG3C52  1  0.338541512893  0.041840000000
CC325A CG3C53  1  0.338541512893  0.041840000000
CC325A CG3C54  1  0.338541512893  0.041840000000
CC325A CG3C31  1  0.338541512893  0.041840000000
CC325A CG3C41  1  0.338541512893  0.041840000000
CC325A CG3RC1  1  0.338541512893  0.041840000000
CC325A CG3AM0  1  0.344777803920  0.110698234855
CC325A CG3AM1  1  0.345668702638  0.116852760686
CC325A CG3AM2  1  0.346559601357  0.118341390899
CC325A NG1T1  1  0.328741626994  0.177512086349
CC325A NG2D1  1  0.334087019303  0.187114168357
CC325A NG2S0  1  0.334087019303  0.004184000000
CC325A NG2S1  1  0.307360057758  0.187114168357
CC325A NG2S2  1  0.334087019303  0.187114168357
CC325A NG2S3  1  0.334087019303  0.187114168357
CC325A NG2O1  1  0.334087019303  0.187114168357
CC325A NG2P1  1  0.334087019303  0.187114168357
CC325A NG2R43  1  0.334087019303  0.187114168357
CC325A NG2R50  1  0.334087019303  0.187114168357
CC325A NG2R51  1  0.334087019303  0.187114168357
CC325A NG2R52  1  0.334087019303  0.187114168357
CC325A NG2R53  1  0.334087019303  0.187114168357
CC325A NG2R57  1  0.334087019303  0.187114168357
CC325A NG2R60  1  0.337650614175  0.102486650838
CC325A NG2R61  1  0.334087019303  0.187114168357
CC325A NG2R62  1  0.352795892384  0.093557084179
CC325A NG2R67  1  0.334087019303  0.187114168357
CC325A NG2RC0  1  0.334087019303  0.187114168357
CC325A NG301  1  0.347450500075  0.078275472531
CC325A NG311  1  0.347450500075  0.088756043175
CC325A NG321  1  0.346559601357  0.102486650838
CC325A NG331  1  0.345668702638  0.110698234855
CC325A NG3C51  1  0.334087019303  0.187114168357
CC325A NG3N1  1  0.351904993665  0.102486650838
CC325A NG3P0  1  0.334087019303  0.187114168357
CC325A NG3P1  1  0.334087019303  0.187114168357
CC325A NG3P2  1  0.334087019303  0.187114168357
CC325A NG3P3  1  0.334087019303  0.187114168357
CC325A OG2D1  1  0.293996576986  0.144938011577
CC325A OG2D2  1  0.320723538531  0.144938011577
CC325A OG2D3  1  0.293996576986  0.144938011577
CC325A OG2D4  1  0.320723538531  0.144938011577
CC325A OG2D5  1  0.320010819556  0.169954883425
CC325A OG2N1  1  0.320723538531  0.144938011577
CC325A OG2P1  1  0.320723538531  0.144938011577
CC325A OG2R50  1  0.320723538531  0.144938011577
CC325A OG3R60  1  0.316269044940  0.132309697301
CC325A OG301  1  0.316269044940  0.132309697301
CC325A OG302  1  0.316269044940  0.132309697301
CC325A OG303  1  0.316269044940  0.132309697301
CC325A OG304  1  0.316269044940  0.132309697301
CC325A OG311  1  0.326514380198  0.183381431383
CC325A OG312  1  0.325178032121  0.144938011577
CC325A OG3C31  1  0.316269044940  0.132309697301
CC325A OG3C51  1  0.316269044940  0.132309697301
CC325A OG3C61  1  0.316269044940  0.132309697301
CC325A OGTIP3  1  0.326799467788  0.163176000000
CC325A SG2D1  1  0.351904993665  0.314496560236
CC325A SG2R50  1  0.347450500075  0.280671252536
CC325A SG311  1  0.347450500075  0.280671252536
CC325A SG301  1  0.345223253279  0.257919081884
CC325A SG302  1  0.365268474438  0.286840588481
CC325A SG3O1  1  0.356359487256  0.286840588481
CC325A SG3O2  1  0.347450500075  0.247528778125
CC325A SG3O3  1  0.347450500075  0.247528778125
CC325A  FGA1  1  0.314487247504  0.153729976257
CC325A  FGA2  1  0.314487247504  0.135577095411
CC325A  FGA3  1  0.311814551349  0.130309939452
CC325A  FGP1  1  0.311814551349  0.130309939452
CC325A  FGR1  1  0.320723538531  0.144938011577
CC325A CLGA1  1  0.339432411611  0.245040988571
CC325A CLGA3  1  0.339432411611  0.232955260941
CC325A BRGA1  1  0.344777803920  0.289876023155
CC325A BRGA2  1  0.351904993665  0.304599797767
CC325A BRGA3  1  0.347450500075  0.307459952514
CC325A   SOD  1  0.294954293108  0.090610410351
CC325A   CLA  1  0.371504765465  0.162045623205
CC325A   PG0  1  0.360813980847  0.320014464673
CC325A   PG1  1  0.360813980847  0.320014464673
CC325A   PG2  1  0.360813980847  0.320014464673
CC325A  ALG1  1  0.347450500075  0.337324864189
CC325A   LPH  1  0.169270756447  0.000000000000
CC325A CLGR1  1  0.334977918021  0.200657590935
CC325A BRGR1  1  0.345668702638  0.236682781799
CC325A  IGR1  1  0.368832069310  0.301712530731
CC325A SG2P1  1  0.355798221064  0.332305491450
CC325A OG2S1  1  0.318906105146  0.157831660601
CC325A SG2P2  1  0.352314807076  0.329421919951
CC325A SEGD1  1  0.363041227642  0.330244580395
CC325A BG201  1  0.396449929572  0.081561175077
CC325A CC301  1  0.338541512893  0.041840000000
CC325A CC3062  1  0.338541512893  0.041840000000
CC325A CC311  1  0.338541512893  0.041840000000
CC325A CC3161  1  0.338541512893  0.041840000000
CC325A CC3162  1  0.338541512893  0.041840000000
CC325A CC3163  1  0.338541512893  0.041840000000
CC325A CC321  1  0.338541512893  0.041840000000
CC325A CC3261  1  0.338541512893  0.041840000000
CC325A CC3263  1  0.338541512893  0.041840000000
CC325A CC331  1  0.338541512893  0.041840000000
CC325A CC2O1  1  0.347450500075  0.138767581228
CC325A CC2O2  1  0.347450500075  0.110698234855
CC325A CC2O3  1  0.347450500075  0.125520000000
CC325A CC2O4  1  0.329632525712  0.102486650838
CC325A CC2O5  1  0.320723538531  0.130979917850
CC325A OC2D1  1  0.293996576986  0.144938011577
CC325A OC2D2  1  0.320723538531  0.144938011577
CC325A OC2D3  1  0.293996576986  0.144938011577
CC325A OC2D4  1  0.293996576986  0.144938011577
CC325A OC3C61  1  0.316269044940  0.132309697301
CC325A OC311  1  0.326514380198  0.183381431383
CC325A NC2D1  1  0.307360057758  0.187114168357
CC325A  HCP1  1  0.189271432669  0.089736802707
CC325A  HCA1  1  0.288651184677  0.088756043175
CC325A  HCA2  1  0.288651184677  0.078275472531
CC325A  HCA3  1  0.288651184677  0.064818249282
CC325A CC312  1  0.338541512893  0.041840000000
CC325A CC322  1  0.338541512893  0.041840000000
CC325A  HCR1  1  0.240542653898  0.089736802707
CC325A HCA3M  1  0.288651184677  0.064818249282
CC325A CC321C  1  0.338541512893  0.041840000000
CC325A CC321D  1  0.338541512893  0.041840000000
CC325A CC311C  1  0.338541512893  0.041840000000
CC325A CC311D  1  0.338541512893  0.041840000000
CC325A OC301  1  0.316269044940  0.132309697301
CC325A OC302  1  0.316269044940  0.132309697301
CC325A HCP1M  1  0.189271432669  0.089736802707
CC325A OC311M  1  0.326514380198  0.183381431383
CC325A OC3C5M  1  0.316269044940  0.132309697301
CC325A CC322C  1  0.338541512893  0.041840000000
CC325A HCA2C2  1  0.285087589805  0.078275472531
CC325A CC312C  1  0.338541512893  0.041840000000
CC325A HCA1C2  1  0.288651184677  0.088756043175
CC325A OC3C51  1  0.316269044940  0.132309697301
CC325A CC3152  1  0.338541512893  0.041840000000
CC325A CC3051  1  0.338541512893  0.041840000000
CC325A CC3251  1  0.338541512893  0.041840000000
CC325A CC3151  1  0.338541512893  0.041840000000
CC325A CC3153  1  0.338541512893  0.041840000000
CC325A OC2DP  1  0.320723538531  0.144938011577
CC325A OC312  1  0.326959829558  0.163176000000
CC325A OC30P  1  0.326959829558  0.163176000000
CC325A    PC  1  0.360813980847  0.320014464673
CC325A    SC  1  0.356359487256  0.286840588481
CC325A CC312D  1  0.338541512893  0.041840000000
CC325A OC303  1  0.316269044940  0.132309697301
CC325A NC311  1  0.347450500075  0.088756043175
CC325A   HN1  1  0.189271432669  0.089736802707
CC325A   HN2  1  0.189271432669  0.089736802707
CC325A   HN3  1  0.267269615442  0.089736802707
CC325A   HN4  1  0.189271432669  0.089736802707
CC325A   HN5  1  0.189271432669  0.089736802707
CC325A   HN6  1  0.286869387241  0.062058748940
CC325A   HN7  1  0.286869387241  0.062058748940
CC325A   HN8  1  0.288651184677  0.070011711020
CC325A   HN9  1  0.288651184677  0.064818249282
CC325A   NN1  1  0.334087019303  0.187114168357
CC325A   NN2  1  0.334087019303  0.187114168357
CC325A  NN2B  1  0.334087019303  0.187114168357
CC325A  NN2G  1  0.334087019303  0.187114168357
CC325A  NN2U  1  0.334087019303  0.187114168357
CC325A   NN3  1  0.334087019303  0.187114168357
CC325A  NN3A  1  0.334087019303  0.187114168357
CC325A  NN3G  1  0.334087019303  0.187114168357
CC325A   NN4  1  0.334087019303  0.187114168357
CC325A   NN6  1  0.334087019303  0.187114168357
CC325A   ON1  1  0.320723538531  0.144938011577
CC325A  ON1C  1  0.320723538531  0.144938011577
CC325A   ON2  1  0.326959829558  0.163176000000
CC325A   ON3  1  0.320723538531  0.144938011577
CC325A   ON4  1  0.326959829558  0.163176000000
CC325A   ON5  1  0.326959829558  0.163176000000
CC325A   ON6  1  0.326959829558  0.163176000000
CC325A  ON6B  1  0.326959829558  0.163176000000
CC325A   CN1  1  0.338541512893  0.132309697301
CC325A  CN1T  1  0.338541512893  0.132309697301
CC325A   CN2  1  0.338541512893  0.132309697301
CC325A   CN3  1  0.338541512893  0.125520000000
CC325A  CN3T  1  0.338541512893  0.125520000000
CC325A   CN4  1  0.338541512893  0.114583559030
CC325A   CN5  1  0.338541512893  0.114583559030
CC325A  CN5G  1  0.338541512893  0.114583559030
CC325A   CN7  1  0.338541512893  0.041840000000
CC325A  CN7B  1  0.338541512893  0.041840000000
CC325A   CN8  1  0.338541512893  0.041840000000
CC325A  CN8B  1  0.338541512893  0.041840000000
CC325A   CN9  1  0.338541512893  0.041840000000
CC325A     P  1  0.360813980847  0.320014464673
CC325A    P2  1  0.360813980847  0.320014464673
CC325A    P3  1  0.360813980847  0.320014464673
CC325A    P4  1  0.360813980847  0.320014464673
CC325A   HOL  1  0.189271432669  0.089736802707
CC325A  HAL1  1  0.286869387241  0.062058748940
CC325A  HAL2  1  0.288651184677  0.070011711020
CC325A  HAL3  1  0.288651184677  0.064818249282
CC325A   HBL  1  0.286869387241  0.062058748940
CC325A   HCL  1  0.189271432669  0.089736802707
CC325A    HL  1  0.231633666716  0.089736802707
CC325A  HEL1  1  0.280633096214  0.073666921749
CC325A  HEL2  1  0.281523994932  0.067464972838
CC325A    CL  1  0.347450500075  0.110698234855
CC325A   CCL  1  0.347450500075  0.110698234855
CC325A  CTL1  1  0.338541512893  0.041840000000
CC325A  CTL2  1  0.338541512893  0.041840000000
CC325A  CTL3  1  0.338541512893  0.041840000000
CC325A  CTL5  1  0.338541512893  0.041840000000
CC325A  CEL1  1  0.355468588538  0.109105371453
CC325A  CEL2  1  0.354577689820  0.105847757841
CC325A  CRL1  1  0.338541512893  0.041840000000
CC325A  CRL2  1  0.338541512893  0.041840000000
CC325A   OBL  1  0.293996576986  0.144938011577
CC325A   OCL  1  0.320723538531  0.144938011577
CC325A   O2L  1  0.320723538531  0.144938011577
CC325A   OHL  1  0.326959829558  0.163176000000
CC325A   OSL  1  0.316269044940  0.132309697301
CC325A  OSLP  1  0.316269044940  0.132309697301
CC325A  NH3L  1  0.334087019303  0.187114168357
CC325A   NTL  1  0.334087019303  0.187114168357
CC325A    SL  1  0.356359487256  0.286840588481
CC325A    PL  1  0.360813980847  0.320014464673
CC325A HCA1A  1  0.288651184677  0.088756043175
CC325A HCA2A  1  0.288651184677  0.078275472531
CC325A HCA3A  1  0.288651184677  0.064818249282
CC325A CC30A  1  0.338541512893  0.041840000000
CC325A CC31A  1  0.338541512893  0.041840000000
CC325A CC32A  1  0.338541512893  0.041840000000
CC325A CC33A  1  0.338541512893  0.041840000000
CC325A CC326A  1  0.338541512893  0.041840000000
CC325A HCA25A  1  0.285087589805  0.078275472531
CC325A CC325A  1  0.338541512893  0.041840000000
CC325A CC325B  1  0.338541512893  0.041840000000
CC325A OC305A  1  0.316269044940  0.132309697301
CC325A OC30A  1  0.316269044940  0.132309697301
CC325A  HSIO  1  0.189271432669  0.089736802707
CC325A  HSIA  1  0.286869387241  0.062058748940
CC325A   HAL  1  0.286869387241  0.062058748940
CC325A    AL  1  0.365268474438  0.337324864189
CC325A    SI  1  0.365268474438  0.324091246411
CC325A  SIH3  1  0.365268474438  0.324091246411
CC325A  OSIH  1  0.326959829558  0.163176000000
CC325A  OSIE  1  0.326959829558  0.163176000000
CC325A  OSIA  1  0.326959829558  0.163176000000
CC325A   OAL  1  0.326959829558  0.163176000000
CC325A    HT  1  0.189271432669  0.089736802707
CC325A    OT  1  0.326799467788  0.163176000000
CC325A   DUM  1  0.169270756447  0.000000000000
CC325A    CM  1  0.356359487256  0.138767581228
CC325A   CPA  1  0.329632525712  0.125520000000
CC325A   CPB  1  0.329632525712  0.125520000000
CC325A   CPM  1  0.329632525712  0.125520000000
CC325A   CST  1  0.308518226092  0.100764063435
CC325A  CT1X  1  0.338541512893  0.041840000000
CC325A  CT2X  1  0.338541512893  0.041840000000
CC325A  CT3X  1  0.338541512893  0.041840000000
CC325A    HB  1  0.286869387241  0.062058748940
CC325A   NPH  1  0.334087019303  0.187114168357
CC325A    OM  1  0.320723538531  0.144938011577
CC325A   OST  1  0.320010819556  0.169954883425
CC325A   POT  1  0.326403017859  0.123410269913
CC325A   CAL  1  0.291056611216  0.144938011577
CC325A    MG  1  0.274842254546  0.051243325419
CC325A   CES  1  0.356359487256  0.182376331798
CC325A    ZN  1  0.266378716724  0.209200000000
CC325A    FE  1  0.227179173126  0.000000000000
CC325A    HE  1  0.301123766731  0.061020452073
CC325A    NE  1  0.305578260322  0.122698965603
CC325A  CLAL  1  0.339272049842  0.072469005789
CC325A    AG  1  0.300901042052  0.893457908130
CC325A    AU  1  0.300722862308  0.962320000000
CC325A    CU  1  0.285800308779  0.908997471504
CC325A    NI  1  0.282949432881  0.994525446633
CC325A    PB  1  0.328073452955  0.716185437439
CC325A    PD  1  0.294842930769  1.037598257516
CC325A    PT  1  0.296001099102  1.168527606863
CC325A   CAP  1  0.346773417049  0.110698234855
CC325A    FA  1  0.320723538531  0.144938011577
CC325A    CN  1  0.325178032121  0.187114168357
CC325A    NC  1  0.334087019303  0.324091246411
CC325A   OCA  1  0.293996576986  0.144938011577
CC325A   COA  1  0.347450500075  0.138767581228
CC325A   CF1  1  0.338541512893  0.102486650838
CC325A   CF2  1  0.351904993665  0.085746484010
CC325A   CF3  1  0.374177461619  0.059170695450
CC325A   HF1  1  0.286869387241  0.070011711020
CC325A   HF2  1  0.285087589805  0.072469005789
CC325A    F1  1  0.314487247504  0.153729976257
CC325A    F2  1  0.314487247504  0.135577095411
CC325A    F3  1  0.311814551349  0.130309939452
CC325A    OX  1  0.320723538531  0.144938011577
CC325A    HX  1  0.189271432669  0.089736802707
CC325A  HPER  1  0.189271432669  0.089736802707
CC325A  OPER  1  0.318427692534  0.188901923946
CC325A   LIT  1  0.284864865125  0.020196198771
CC325A   RUB  1  0.338541512893  0.162045623205
CC325A   BAR  1  0.337650614175  0.162045623205
CC325A   CAD  1  0.290165712498  0.144938011577
CC325A  ON2B  1  0.326959829558  0.163176000000
CC325A    SP  1  0.365268474438  0.280671252536
CC325A   HNP  1  0.290272620344  0.072469005789
CC325A  HNE1  1  0.280633096214  0.073666921749
CC325A  HNE2  1  0.281523994932  0.067464972838
CC325A  CN3D  1  0.338541512893  0.125520000000
CC325A  CNE1  1  0.355468588538  0.109105371453
CC325A  CNE2  1  0.354577689820  0.105847757841
CC325A   CNA  1  0.346773417049  0.110698234855
CC325A  CNA2  1  0.338541512893  0.110698234855
CC325A   CNG  1  0.347450500075  0.138767581228
CC325A  NN1C  1  0.334087019303  0.187114168357
CC325A  NN2C  1  0.334087019303  0.187114168357
CC325A  NN3I  1  0.334087019303  0.187114168357
CC325A   NNG  1  0.334087019303  0.187114168357
CC325A   FNA  1  0.320723538531  0.144938011577
CC325A  ON2M  1  0.316269044940  0.132309697301
CC325A   CN6  1  0.338541512893  0.041840000000
CC325A  CN7E  1  0.338541512893  0.041840000000
CC325A  CT2P  1  0.338541512893  0.041840000000
CC325A  CTD1  1  0.338541512893  0.041840000000
CC325A  CPD1  1  0.338541512893  0.041840000000
CC325A  CC1A  1  0.355468588538  0.109105371453
CC325A  CC1B  1  0.355468588538  0.109105371453
CC325A   CC2  1  0.354577689820  0.105847757841
CC325A   NS1  1  0.334087019303  0.187114168357
CC325A   NS2  1  0.334087019303  0.187114168357
CC325A   NHL  1  0.307360057758  0.187114168357
CC325A  CTO1  1  0.338541512893  0.041840000000
CC325A  CEL3  1  0.355468588538  0.109105371453
CC325A  CTO2  1  0.338541512893  0.041840000000
CC325A  HN3B  1  0.249451641079  0.089736802707
CC325A  CN1A  1  0.347450500075  0.110698234855
CC325A  CN3A  1  0.329632525712  0.177512086349
CC325A  CN3B  1  0.329632525712  0.177512086349
CC325A  CN3C  1  0.329632525712  0.177512086349
CC325B     C  1  0.347450500075  0.138767581228
CC325B    CA  1  0.346773417049  0.110698234855
CC325B    CC  1  0.347450500075  0.110698234855
CC325B    CD  1  0.347450500075  0.110698234855
CC325B   CE1  1  0.355468588538  0.109105371453
CC325B   CE2  1  0.354577689820  0.105847757841
CC325B   CP1  1  0.338541512893  0.041840000000
CC325B   CP2  1  0.338541512893  0.041840000000
CC325B   CP3  1  0.338541512893  0.041840000000
CC325B  CPH1  1  0.329632525712  0.093557084179
CC325B  CPH2  1  0.329632525712  0.093557084179
CC325B    CS  1  0.365268474438  0.138767581228
CC325B   CPT  1  0.334977918021  0.131646486622
CC325B    CY  1  0.346559601357  0.113045454929
CC325B   CAI  1  0.346559601357  0.113045454929
CC325B    CT  1  0.338541512893  0.041840000000
CC325B   CT1  1  0.338541512893  0.041840000000
CC325B   CT2  1  0.338541512893  0.041840000000
CC325B  CT2A  1  0.338541512893  0.041840000000
CC325B   CT3  1  0.338541512893  0.041840000000
CC325B    C3  1  0.371950214824  0.059170695450
CC325B     H  1  0.189271432669  0.089736802707
CC325B    HA  1  0.286869387241  0.062058748940
CC325B   HB1  1  0.286869387241  0.062058748940
CC325B   HB2  1  0.288651184677  0.070011711020
CC325B   HE1  1  0.280633096214  0.073666921749
CC325B   HE2  1  0.281523994932  0.067464972838
CC325B    HC  1  0.189271432669  0.089736802707
CC325B    HP  1  0.290272620344  0.072469005789
CC325B   HR1  1  0.249451641079  0.089736802707
CC325B   HR2  1  0.231633666716  0.089736802707
CC325B   HR3  1  0.300054688270  0.036952087465
CC325B    HS  1  0.209361198763  0.132309697301
CC325B   HA1  1  0.288651184677  0.088756043175
CC325B   HA2  1  0.288651184677  0.077149148019
CC325B   HA3  1  0.288651184677  0.064818249282
CC325B     N  1  0.334087019303  0.004184000000
CC325B   NC2  1  0.334087019303  0.187114168357
CC325B   NH1  1  0.307360057758  0.187114168357
CC325B   NH2  1  0.334087019303  0.187114168357
CC325B   NH3  1  0.334087019303  0.187114168357
CC325B    NP  1  0.334087019303  0.187114168357
CC325B   NR1  1  0.334087019303  0.187114168357
CC325B   NR2  1  0.334087019303  0.187114168357
CC325B   NR3  1  0.334087019303  0.187114168357
CC325B    NY  1  0.334087019303  0.187114168357
CC325B     O  1  0.293996576986  0.144938011577
CC325B    OB  1  0.293996576986  0.144938011577
CC325B    OC  1  0.320723538531  0.144938011577
CC325B   OH1  1  0.326959829558  0.163176000000
CC325B    OS  1  0.326959829558  0.163176000000
CC325B     S  1  0.347450500075  0.280671252536
CC325B    SM  1  0.345223253279  0.257919081884
CC325B    SS  1  0.365268474438  0.286840588481
CC325B  HGA1  1  0.288651184677  0.088756043175
CC325B  HGA2  1  0.288651184677  0.078275472531
CC325B  HGA3  1  0.288651184677  0.064818249282
CC325B  HGA4  1  0.280633096214  0.073666921749
CC325B  HGA5  1  0.281523994932  0.067464972838
CC325B  HGA6  1  0.286869387241  0.070011711020
CC325B  HGA7  1  0.285087589805  0.072469005789
CC325B HGAAM0  1  0.283305792369  0.070011711020
CC325B HGAAM1  1  0.283305792369  0.070011711020
CC325B HGAAM2  1  0.281523994932  0.083680000000
CC325B  HGP1  1  0.189271432669  0.089736802707
CC325B  HGP2  1  0.189271432669  0.089736802707
CC325B  HGP3  1  0.209361198763  0.132309697301
CC325B  HGP4  1  0.189271432669  0.089736802707
CC325B  HGP5  1  0.231633666716  0.089736802707
CC325B HGPAM1  1  0.247224394284  0.039692909190
CC325B HGPAM2  1  0.247224394284  0.041840000000
CC325B HGPAM3  1  0.246778944925  0.045833423612
CC325B HGR51  1  0.290272620344  0.072469005789
CC325B HGR52  1  0.249451641079  0.089736802707
CC325B HGR53  1  0.231633666716  0.089736802707
CC325B HGR61  1  0.290272620344  0.072469005789
CC325B HGR62  1  0.267269615442  0.089736802707
CC325B HGR63  1  0.249451641079  0.089736802707
CC325B HGR71  1  0.290272620344  0.072469005789
CC325B HGTIP3  1  0.189271432669  0.089736802707
CC325B CG1T1  1  0.333196120584  0.170981810495
CC325B CG1T2  1  0.346782326036  0.134409982486
CC325B CG1N1  1  0.335868816739  0.177512086349
CC325B CG2D1  1  0.355468588538  0.109105371453
CC325B CG2D2  1  0.354577689820  0.105847757841
CC325B CG2D1O  1  0.355468588538  0.109105371453
CC325B CG2D2O  1  0.355468588538  0.109105371453
CC325B CG2DC1  1  0.355468588538  0.109105371453
CC325B CG2DC2  1  0.355468588538  0.109105371453
CC325B CG2DC3  1  0.354577689820  0.105847757841
CC325B CG2N1  1  0.347450500075  0.138767581228
CC325B CG2N2  1  0.347450500075  0.138767581228
CC325B CG2O1  1  0.347450500075  0.138767581228
CC325B CG2O2  1  0.320723538531  0.130979917850
CC325B CG2O3  1  0.347450500075  0.110698234855
CC325B CG2O4  1  0.329632525712  0.102486650838
CC325B CG2O5  1  0.347450500075  0.125520000000
CC325B CG2O6  1  0.347450500075  0.110698234855
CC325B CG2O7  1  0.308518226092  0.100764063435
CC325B CG2R51  1  0.356359487256  0.093557084179
CC325B CG2R52  1  0.365268474438  0.059170695450
CC325B CG2R53  1  0.365268474438  0.059170695450
CC325B CG2R57  1  0.356359487256  0.093557084179
CC325B CG25C1  1  0.355468588538  0.109105371453
CC325B CG25C2  1  0.355468588538  0.109105371453
CC325B CG251O  1  0.355468588538  0.109105371453
CC325B CG252O  1  0.355468588538  0.109105371453
CC325B CG2R61  1  0.346773417049  0.110698234855
CC325B CG2R62  1  0.338541512893  0.125520000000
CC325B CG2R63  1  0.338541512893  0.132309697301
CC325B CG2R64  1  0.356359487256  0.083680000000
CC325B CG2R66  1  0.338541512893  0.110698234855
CC325B CG2R67  1  0.346773417049  0.110698234855
CC325B CG2RC0  1  0.334977918021  0.131646486622
CC325B CG2R71  1  0.346987232741  0.108300154755
CC325B CG2RC7  1  0.334977918021  0.131646486622
CC325B CG301  1  0.338541512893  0.041840000000
CC325B CG302  1  0.374177461619  0.059170695450
CC325B CG311  1  0.338541512893  0.041840000000
CC325B CG312  1  0.351904993665  0.085746484010
CC325B CG314  1  0.338541512893  0.041840000000
CC325B CG321  1  0.338541512893  0.041840000000
CC325B CG322  1  0.338541512893  0.102486650838
CC325B CG323  1  0.365268474438  0.138767581228
CC325B CG324  1  0.338541512893  0.041840000000
CC325B CG331  1  0.338541512893  0.041840000000
CC325B CG334  1  0.338541512893  0.041840000000
CC325B CG3C50  1  0.338541512893  0.041840000000
CC325B CG3C51  1  0.338541512893  0.041840000000
CC325B CG3C52  1  0.338541512893  0.041840000000
CC325B CG3C53  1  0.338541512893  0.041840000000
CC325B CG3C54  1  0.338541512893  0.041840000000
CC325B CG3C31  1  0.338541512893  0.041840000000
CC325B CG3C41  1  0.338541512893  0.041840000000
CC325B CG3RC1  1  0.338541512893  0.041840000000
CC325B CG3AM0  1  0.344777803920  0.110698234855
CC325B CG3AM1  1  0.345668702638  0.116852760686
CC325B CG3AM2  1  0.346559601357  0.118341390899
CC325B NG1T1  1  0.328741626994  0.177512086349
CC325B NG2D1  1  0.334087019303  0.187114168357
CC325B NG2S0  1  0.334087019303  0.004184000000
CC325B NG2S1  1  0.307360057758  0.187114168357
CC325B NG2S2  1  0.334087019303  0.187114168357
CC325B NG2S3  1  0.334087019303  0.187114168357
CC325B NG2O1  1  0.334087019303  0.187114168357
CC325B NG2P1  1  0.334087019303  0.187114168357
CC325B NG2R43  1  0.334087019303  0.187114168357
CC325B NG2R50  1  0.334087019303  0.187114168357
CC325B NG2R51  1  0.334087019303  0.187114168357
CC325B NG2R52  1  0.334087019303  0.187114168357
CC325B NG2R53  1  0.334087019303  0.187114168357
CC325B NG2R57  1  0.334087019303  0.187114168357
CC325B NG2R60  1  0.337650614175  0.102486650838
CC325B NG2R61  1  0.334087019303  0.187114168357
CC325B NG2R62  1  0.352795892384  0.093557084179
CC325B NG2R67  1  0.334087019303  0.187114168357
CC325B NG2RC0  1  0.334087019303  0.187114168357
CC325B NG301  1  0.347450500075  0.078275472531
CC325B NG311  1  0.347450500075  0.088756043175
CC325B NG321  1  0.346559601357  0.102486650838
CC325B NG331  1  0.345668702638  0.110698234855
CC325B NG3C51  1  0.334087019303  0.187114168357
CC325B NG3N1  1  0.351904993665  0.102486650838
CC325B NG3P0  1  0.334087019303  0.187114168357
CC325B NG3P1  1  0.334087019303  0.187114168357
CC325B NG3P2  1  0.334087019303  0.187114168357
CC325B NG3P3  1  0.334087019303  0.187114168357
CC325B OG2D1  1  0.293996576986  0.144938011577
CC325B OG2D2  1  0.320723538531  0.144938011577
CC325B OG2D3  1  0.293996576986  0.144938011577
CC325B OG2D4  1  0.320723538531  0.144938011577
CC325B OG2D5  1  0.320010819556  0.169954883425
CC325B OG2N1  1  0.320723538531  0.144938011577
CC325B OG2P1  1  0.320723538531  0.144938011577
CC325B OG2R50  1  0.320723538531  0.144938011577
CC325B OG3R60  1  0.316269044940  0.132309697301
CC325B OG301  1  0.316269044940  0.132309697301
CC325B OG302  1  0.316269044940  0.132309697301
CC325B OG303  1  0.316269044940  0.132309697301
CC325B OG304  1  0.316269044940  0.132309697301
CC325B OG311  1  0.326514380198  0.183381431383
CC325B OG312  1  0.325178032121  0.144938011577
CC325B OG3C31  1  0.316269044940  0.132309697301
CC325B OG3C51  1  0.316269044940  0.132309697301
CC325B OG3C61  1  0.316269044940  0.132309697301
CC325B OGTIP3  1  0.326799467788  0.163176000000
CC325B SG2D1  1  0.351904993665  0.314496560236
CC325B SG2R50  1  0.347450500075  0.280671252536
CC325B SG311  1  0.347450500075  0.280671252536
CC325B SG301  1  0.345223253279  0.257919081884
CC325B SG302  1  0.365268474438  0.286840588481
CC325B SG3O1  1  0.356359487256  0.286840588481
CC325B SG3O2  1  0.347450500075  0.247528778125
CC325B SG3O3  1  0.347450500075  0.247528778125
CC325B  FGA1  1  0.314487247504  0.153729976257
CC325B  FGA2  1  0.314487247504  0.135577095411
CC325B  FGA3  1  0.311814551349  0.130309939452
CC325B  FGP1  1  0.311814551349  0.130309939452
CC325B  FGR1  1  0.320723538531  0.144938011577
CC325B CLGA1  1  0.339432411611  0.245040988571
CC325B CLGA3  1  0.339432411611  0.232955260941
CC325B BRGA1  1  0.344777803920  0.289876023155
CC325B BRGA2  1  0.351904993665  0.304599797767
CC325B BRGA3  1  0.347450500075  0.307459952514
CC325B   SOD  1  0.294954293108  0.090610410351
CC325B   CLA  1  0.371504765465  0.162045623205
CC325B   PG0  1  0.360813980847  0.320014464673
CC325B   PG1  1  0.360813980847  0.320014464673
CC325B   PG2  1  0.360813980847  0.320014464673
CC325B  ALG1  1  0.347450500075  0.337324864189
CC325B   LPH  1  0.169270756447  0.000000000000
CC325B CLGR1  1  0.334977918021  0.200657590935
CC325B BRGR1  1  0.345668702638  0.236682781799
CC325B  IGR1  1  0.368832069310  0.301712530731
CC325B SG2P1  1  0.355798221064  0.332305491450
CC325B OG2S1  1  0.318906105146  0.157831660601
CC325B SG2P2  1  0.352314807076  0.329421919951
CC325B SEGD1  1  0.363041227642  0.330244580395
CC325B BG201  1  0.396449929572  0.081561175077
CC325B CC301  1  0.338541512893  0.041840000000
CC325B CC3062  1  0.338541512893  0.041840000000
CC325B CC311  1  0.338541512893  0.041840000000
CC325B CC3161  1  0.338541512893  0.041840000000
CC325B CC3162  1  0.338541512893  0.041840000000
CC325B CC3163  1  0.338541512893  0.041840000000
CC325B CC321  1  0.338541512893  0.041840000000
CC325B CC3261  1  0.338541512893  0.041840000000
CC325B CC3263  1  0.338541512893  0.041840000000
CC325B CC331  1  0.338541512893  0.041840000000
CC325B CC2O1  1  0.347450500075  0.138767581228
CC325B CC2O2  1  0.347450500075  0.110698234855
CC325B CC2O3  1  0.347450500075  0.125520000000
CC325B CC2O4  1  0.329632525712  0.102486650838
CC325B CC2O5  1  0.320723538531  0.130979917850
CC325B OC2D1  1  0.293996576986  0.144938011577
CC325B OC2D2  1  0.320723538531  0.144938011577
CC325B OC2D3  1  0.293996576986  0.144938011577
CC325B OC2D4  1  0.293996576986  0.144938011577
CC325B OC3C61  1  0.316269044940  0.132309697301
CC325B OC311  1  0.326514380198  0.183381431383
CC325B NC2D1  1  0.307360057758  0.187114168357
CC325B  HCP1  1  0.189271432669  0.089736802707
CC325B  HCA1  1  0.288651184677  0.088756043175
CC325B  HCA2  1  0.288651184677  0.078275472531
CC325B  HCA3  1  0.288651184677  0.064818249282
CC325B CC312  1  0.338541512893  0.041840000000
CC325B CC322  1  0.338541512893  0.041840000000
CC325B  HCR1  1  0.240542653898  0.089736802707
CC325B HCA3M  1  0.288651184677  0.064818249282
CC325B CC321C  1  0.338541512893  0.041840000000
CC325B CC321D  1  0.338541512893  0.041840000000
CC325B CC311C  1  0.338541512893  0.041840000000
CC325B CC311D  1  0.338541512893  0.041840000000
CC325B OC301  1  0.316269044940  0.132309697301
CC325B OC302  1  0.316269044940  0.132309697301
CC325B HCP1M  1  0.189271432669  0.089736802707
CC325B OC311M  1  0.326514380198  0.183381431383
CC325B OC3C5M  1  0.316269044940  0.132309697301
CC325B CC322C  1  0.338541512893  0.041840000000
CC325B HCA2C2  1  0.285087589805  0.078275472531
CC325B CC312C  1  0.338541512893  0.041840000000
CC325B HCA1C2  1  0.288651184677  0.088756043175
CC325B OC3C51  1  0.316269044940  0.132309697301
CC325B CC3152  1  0.338541512893  0.041840000000
CC325B CC3051  1  0.338541512893  0.041840000000
CC325B CC3251  1  0.338541512893  0.041840000000
CC325B CC3151  1  0.338541512893  0.041840000000
CC325B CC3153  1  0.338541512893  0.041840000000
CC325B OC2DP  1  0.320723538531  0.144938011577
CC325B OC312  1  0.326959829558  0.163176000000
CC325B OC30P  1  0.326959829558  0.163176000000
CC325B    PC  1  0.360813980847  0.320014464673
CC325B    SC  1  0.356359487256  0.286840588481
CC325B CC312D  1  0.338541512893  0.041840000000
CC325B OC303  1  0.316269044940  0.132309697301
CC325B NC311  1  0.347450500075  0.088756043175
CC325B   HN1  1  0.189271432669  0.089736802707
CC325B   HN2  1  0.189271432669  0.089736802707
CC325B   HN3  1  0.267269615442  0.089736802707
CC325B   HN4  1  0.189271432669  0.089736802707
CC325B   HN5  1  0.189271432669  0.089736802707
CC325B   HN6  1  0.286869387241  0.062058748940
CC325B   HN7  1  0.286869387241  0.062058748940
CC325B   HN8  1  0.288651184677  0.070011711020
CC325B   HN9  1  0.288651184677  0.064818249282
CC325B   NN1  1  0.334087019303  0.187114168357
CC325B   NN2  1  0.334087019303  0.187114168357
CC325B  NN2B  1  0.334087019303  0.187114168357
CC325B  NN2G  1  0.334087019303  0.187114168357
CC325B  NN2U  1  0.334087019303  0.187114168357
CC325B   NN3  1  0.334087019303  0.187114168357
CC325B  NN3A  1  0.334087019303  0.187114168357
CC325B  NN3G  1  0.334087019303  0.187114168357
CC325B   NN4  1  0.334087019303  0.187114168357
CC325B   NN6  1  0.334087019303  0.187114168357
CC325B   ON1  1  0.320723538531  0.144938011577
CC325B  ON1C  1  0.320723538531  0.144938011577
CC325B   ON2  1  0.326959829558  0.163176000000
CC325B   ON3  1  0.320723538531  0.144938011577
CC325B   ON4  1  0.326959829558  0.163176000000
CC325B   ON5  1  0.326959829558  0.163176000000
CC325B   ON6  1  0.326959829558  0.163176000000
CC325B  ON6B  1  0.326959829558  0.163176000000
CC325B   CN1  1  0.338541512893  0.132309697301
CC325B  CN1T  1  0.338541512893  0.132309697301
CC325B   CN2  1  0.338541512893  0.132309697301
CC325B   CN3  1  0.338541512893  0.125520000000
CC325B  CN3T  1  0.338541512893  0.125520000000
CC325B   CN4  1  0.338541512893  0.114583559030
CC325B   CN5  1  0.338541512893  0.114583559030
CC325B  CN5G  1  0.338541512893  0.114583559030
CC325B   CN7  1  0.338541512893  0.041840000000
CC325B  CN7B  1  0.338541512893  0.041840000000
CC325B   CN8  1  0.338541512893  0.041840000000
CC325B  CN8B  1  0.338541512893  0.041840000000
CC325B   CN9  1  0.338541512893  0.041840000000
CC325B     P  1  0.360813980847  0.320014464673
CC325B    P2  1  0.360813980847  0.320014464673
CC325B    P3  1  0.360813980847  0.320014464673
CC325B    P4  1  0.360813980847  0.320014464673
CC325B   HOL  1  0.189271432669  0.089736802707
CC325B  HAL1  1  0.286869387241  0.062058748940
CC325B  HAL2  1  0.288651184677  0.070011711020
CC325B  HAL3  1  0.288651184677  0.064818249282
CC325B   HBL  1  0.286869387241  0.062058748940
CC325B   HCL  1  0.189271432669  0.089736802707
CC325B    HL  1  0.231633666716  0.089736802707
CC325B  HEL1  1  0.280633096214  0.073666921749
CC325B  HEL2  1  0.281523994932  0.067464972838
CC325B    CL  1  0.347450500075  0.110698234855
CC325B   CCL  1  0.347450500075  0.110698234855
CC325B  CTL1  1  0.338541512893  0.041840000000
CC325B  CTL2  1  0.338541512893  0.041840000000
CC325B  CTL3  1  0.338541512893  0.041840000000
CC325B  CTL5  1  0.338541512893  0.041840000000
CC325B  CEL1  1  0.355468588538  0.109105371453
CC325B  CEL2  1  0.354577689820  0.105847757841
CC325B  CRL1  1  0.338541512893  0.041840000000
CC325B  CRL2  1  0.338541512893  0.041840000000
CC325B   OBL  1  0.293996576986  0.144938011577
CC325B   OCL  1  0.320723538531  0.144938011577
CC325B   O2L  1  0.320723538531  0.144938011577
CC325B   OHL  1  0.326959829558  0.163176000000
CC325B   OSL  1  0.316269044940  0.132309697301
CC325B  OSLP  1  0.316269044940  0.132309697301
CC325B  NH3L  1  0.334087019303  0.187114168357
CC325B   NTL  1  0.334087019303  0.187114168357
CC325B    SL  1  0.356359487256  0.286840588481
CC325B    PL  1  0.360813980847  0.320014464673
CC325B HCA1A  1  0.288651184677  0.088756043175
CC325B HCA2A  1  0.288651184677  0.078275472531
CC325B HCA3A  1  0.288651184677  0.064818249282
CC325B CC30A  1  0.338541512893  0.041840000000
CC325B CC31A  1  0.338541512893  0.041840000000
CC325B CC32A  1  0.338541512893  0.041840000000
CC325B CC33A  1  0.338541512893  0.041840000000
CC325B CC326A  1  0.338541512893  0.041840000000
CC325B HCA25A  1  0.285087589805  0.078275472531
CC325B CC325A  1  0.338541512893  0.041840000000
CC325B CC325B  1  0.338541512893  0.041840000000
CC325B OC305A  1  0.316269044940  0.132309697301
CC325B OC30A  1  0.316269044940  0.132309697301
CC325B  HSIO  1  0.189271432669  0.089736802707
CC325B  HSIA  1  0.286869387241  0.062058748940
CC325B   HAL  1  0.286869387241  0.062058748940
CC325B    AL  1  0.365268474438  0.337324864189
CC325B    SI  1  0.365268474438  0.324091246411
CC325B  SIH3  1  0.365268474438  0.324091246411
CC325B  OSIH  1  0.326959829558  0.163176000000
CC325B  OSIE  1  0.326959829558  0.163176000000
CC325B  OSIA  1  0.326959829558  0.163176000000
CC325B   OAL  1  0.326959829558  0.163176000000
CC325B    HT  1  0.189271432669  0.089736802707
CC325B    OT  1  0.326799467788  0.163176000000
CC325B   DUM  1  0.169270756447  0.000000000000
CC325B    CM  1  0.356359487256  0.138767581228
CC325B   CPA  1  0.329632525712  0.125520000000
CC325B   CPB  1  0.329632525712  0.125520000000
CC325B   CPM  1  0.329632525712  0.125520000000
CC325B   CST  1  0.308518226092  0.100764063435
CC325B  CT1X  1  0.338541512893  0.041840000000
CC325B  CT2X  1  0.338541512893  0.041840000000
CC325B  CT3X  1  0.338541512893  0.041840000000
CC325B    HB  1  0.286869387241  0.062058748940
CC325B   NPH  1  0.334087019303  0.187114168357
CC325B    OM  1  0.320723538531  0.144938011577
CC325B   OST  1  0.320010819556  0.169954883425
CC325B   POT  1  0.326403017859  0.123410269913
CC325B   CAL  1  0.291056611216  0.144938011577
CC325B    MG  1  0.274842254546  0.051243325419
CC325B   CES  1  0.356359487256  0.182376331798
CC325B    ZN  1  0.266378716724  0.209200000000
CC325B    FE  1  0.227179173126  0.000000000000
CC325B    HE  1  0.301123766731  0.061020452073
CC325B    NE  1  0.305578260322  0.122698965603
CC325B  CLAL  1  0.339272049842  0.072469005789
CC325B    AG  1  0.300901042052  0.893457908130
CC325B    AU  1  0.300722862308  0.962320000000
CC325B    CU  1  0.285800308779  0.908997471504
CC325B    NI  1  0.282949432881  0.994525446633
CC325B    PB  1  0.328073452955  0.716185437439
CC325B    PD  1  0.294842930769  1.037598257516
CC325B    PT  1  0.296001099102  1.168527606863
CC325B   CAP  1  0.346773417049  0.110698234855
CC325B    FA  1  0.320723538531  0.144938011577
CC325B    CN  1  0.325178032121  0.187114168357
CC325B    NC  1  0.334087019303  0.324091246411
CC325B   OCA  1  0.293996576986  0.144938011577
CC325B   COA  1  0.347450500075  0.138767581228
CC325B   CF1  1  0.338541512893  0.102486650838
CC325B   CF2  1  0.351904993665  0.085746484010
CC325B   CF3  1  0.374177461619  0.059170695450
CC325B   HF1  1  0.286869387241  0.070011711020
CC325B   HF2  1  0.285087589805  0.072469005789
CC325B    F1  1  0.314487247504  0.153729976257
CC325B    F2  1  0.314487247504  0.135577095411
CC325B    F3  1  0.311814551349  0.130309939452
CC325B    OX  1  0.320723538531  0.144938011577
CC325B    HX  1  0.189271432669  0.089736802707
CC325B  HPER  1  0.189271432669  0.089736802707
CC325B  OPER  1  0.318427692534  0.188901923946
CC325B   LIT  1  0.284864865125  0.020196198771
CC325B   RUB  1  0.338541512893  0.162045623205
CC325B   BAR  1  0.337650614175  0.162045623205
CC325B   CAD  1  0.290165712498  0.144938011577
CC325B  ON2B  1  0.326959829558  0.163176000000
CC325B    SP  1  0.365268474438  0.280671252536
CC325B   HNP  1  0.290272620344  0.072469005789
CC325B  HNE1  1  0.280633096214  0.073666921749
CC325B  HNE2  1  0.281523994932  0.067464972838
CC325B  CN3D  1  0.338541512893  0.125520000000
CC325B  CNE1  1  0.355468588538  0.109105371453
CC325B  CNE2  1  0.354577689820  0.105847757841
CC325B   CNA  1  0.346773417049  0.110698234855
CC325B  CNA2  1  0.338541512893  0.110698234855
CC325B   CNG  1  0.347450500075  0.138767581228
CC325B  NN1C  1  0.334087019303  0.187114168357
CC325B  NN2C  1  0.334087019303  0.187114168357
CC325B  NN3I  1  0.334087019303  0.187114168357
CC325B   NNG  1  0.334087019303  0.187114168357
CC325B   FNA  1  0.320723538531  0.144938011577
CC325B  ON2M  1  0.316269044940  0.132309697301
CC325B   CN6  1  0.338541512893  0.041840000000
CC325B  CN7E  1  0.338541512893  0.041840000000
CC325B  CT2P  1  0.338541512893  0.041840000000
CC325B  CTD1  1  0.338541512893  0.041840000000
CC325B  CPD1  1  0.338541512893  0.041840000000
CC325B  CC1A  1  0.355468588538  0.109105371453
CC325B  CC1B  1  0.355468588538  0.109105371453
CC325B   CC2  1  0.354577689820  0.105847757841
CC325B   NS1  1  0.334087019303  0.187114168357
CC325B   NS2  1  0.334087019303  0.187114168357
CC325B   NHL  1  0.307360057758  0.187114168357
CC325B  CTO1  1  0.338541512893  0.041840000000
CC325B  CEL3  1  0.355468588538  0.109105371453
CC325B  CTO2  1  0.338541512893  0.041840000000
CC325B  HN3B  1  0.249451641079  0.089736802707
CC325B  CN1A  1  0.347450500075  0.110698234855
CC325B  CN3A  1  0.329632525712  0.177512086349
CC325B  CN3B  1  0.329632525712  0.177512086349
CC325B  CN3C  1  0.329632525712  0.177512086349
 CT1X     C  1  0.347450500075  0.138767581228
 CT1X    CA  1  0.346773417049  0.110698234855
 CT1X    CC  1  0.347450500075  0.110698234855
 CT1X    CD  1  0.347450500075  0.110698234855
 CT1X   CE1  1  0.355468588538  0.109105371453
 CT1X   CE2  1  0.354577689820  0.105847757841
 CT1X   CP1  1  0.338541512893  0.041840000000
 CT1X   CP2  1  0.338541512893  0.041840000000
 CT1X   CP3  1  0.338541512893  0.041840000000
 CT1X  CPH1  1  0.329632525712  0.093557084179
 CT1X  CPH2  1  0.329632525712  0.093557084179
 CT1X    CS  1  0.365268474438  0.138767581228
 CT1X   CPT  1  0.334977918021  0.131646486622
 CT1X    CY  1  0.346559601357  0.113045454929
 CT1X   CAI  1  0.346559601357  0.113045454929
 CT1X    CT  1  0.338541512893  0.041840000000
 CT1X   CT1  1  0.338541512893  0.041840000000
 CT1X   CT2  1  0.338541512893  0.041840000000
 CT1X  CT2A  1  0.338541512893  0.041840000000
 CT1X   CT3  1  0.338541512893  0.041840000000
 CT1X    C3  1  0.371950214824  0.059170695450
 CT1X     H  1  0.189271432669  0.089736802707
 CT1X    HA  1  0.286869387241  0.062058748940
 CT1X   HB1  1  0.286869387241  0.062058748940
 CT1X   HB2  1  0.288651184677  0.070011711020
 CT1X   HE1  1  0.280633096214  0.073666921749
 CT1X   HE2  1  0.281523994932  0.067464972838
 CT1X    HC  1  0.189271432669  0.089736802707
 CT1X    HP  1  0.290272620344  0.072469005789
 CT1X   HR1  1  0.249451641079  0.089736802707
 CT1X   HR2  1  0.231633666716  0.089736802707
 CT1X   HR3  1  0.300054688270  0.036952087465
 CT1X    HS  1  0.209361198763  0.132309697301
 CT1X   HA1  1  0.288651184677  0.088756043175
 CT1X   HA2  1  0.288651184677  0.077149148019
 CT1X   HA3  1  0.288651184677  0.064818249282
 CT1X     N  1  0.334087019303  0.004184000000
 CT1X   NC2  1  0.334087019303  0.187114168357
 CT1X   NH1  1  0.307360057758  0.187114168357
 CT1X   NH2  1  0.334087019303  0.187114168357
 CT1X   NH3  1  0.334087019303  0.187114168357
 CT1X    NP  1  0.334087019303  0.187114168357
 CT1X   NR1  1  0.334087019303  0.187114168357
 CT1X   NR2  1  0.334087019303  0.187114168357
 CT1X   NR3  1  0.334087019303  0.187114168357
 CT1X    NY  1  0.334087019303  0.187114168357
 CT1X     O  1  0.293996576986  0.144938011577
 CT1X    OB  1  0.293996576986  0.144938011577
 CT1X    OC  1  0.320723538531  0.144938011577
 CT1X   OH1  1  0.326959829558  0.163176000000
 CT1X    OS  1  0.326959829558  0.163176000000
 CT1X     S  1  0.347450500075  0.280671252536
 CT1X    SM  1  0.345223253279  0.257919081884
 CT1X    SS  1  0.365268474438  0.286840588481
 CT1X  HGA1  1  0.288651184677  0.088756043175
 CT1X  HGA2  1  0.288651184677  0.078275472531
 CT1X  HGA3  1  0.288651184677  0.064818249282
 CT1X  HGA4  1  0.280633096214  0.073666921749
 CT1X  HGA5  1  0.281523994932  0.067464972838
 CT1X  HGA6  1  0.286869387241  0.070011711020
 CT1X  HGA7  1  0.285087589805  0.072469005789
 CT1X HGAAM0  1  0.283305792369  0.070011711020
 CT1X HGAAM1  1  0.283305792369  0.070011711020
 CT1X HGAAM2  1  0.281523994932  0.083680000000
 CT1X  HGP1  1  0.189271432669  0.089736802707
 CT1X  HGP2  1  0.189271432669  0.089736802707
 CT1X  HGP3  1  0.209361198763  0.132309697301
 CT1X  HGP4  1  0.189271432669  0.089736802707
 CT1X  HGP5  1  0.231633666716  0.089736802707
 CT1X HGPAM1  1  0.247224394284  0.039692909190
 CT1X HGPAM2  1  0.247224394284  0.041840000000
 CT1X HGPAM3  1  0.246778944925  0.045833423612
 CT1X HGR51  1  0.290272620344  0.072469005789
 CT1X HGR52  1  0.249451641079  0.089736802707
 CT1X HGR53  1  0.231633666716  0.089736802707
 CT1X HGR61  1  0.290272620344  0.072469005789
 CT1X HGR62  1  0.267269615442  0.089736802707
 CT1X HGR63  1  0.249451641079  0.089736802707
 CT1X HGR71  1  0.290272620344  0.072469005789
 CT1X HGTIP3  1  0.189271432669  0.089736802707
 CT1X CG1T1  1  0.333196120584  0.170981810495
 CT1X CG1T2  1  0.346782326036  0.134409982486
 CT1X CG1N1  1  0.335868816739  0.177512086349
 CT1X CG2D1  1  0.355468588538  0.109105371453
 CT1X CG2D2  1  0.354577689820  0.105847757841
 CT1X CG2D1O  1  0.355468588538  0.109105371453
 CT1X CG2D2O  1  0.355468588538  0.109105371453
 CT1X CG2DC1  1  0.355468588538  0.109105371453
 CT1X CG2DC2  1  0.355468588538  0.109105371453
 CT1X CG2DC3  1  0.354577689820  0.105847757841
 CT1X CG2N1  1  0.347450500075  0.138767581228
 CT1X CG2N2  1  0.347450500075  0.138767581228
 CT1X CG2O1  1  0.347450500075  0.138767581228
 CT1X CG2O2  1  0.320723538531  0.130979917850
 CT1X CG2O3  1  0.347450500075  0.110698234855
 CT1X CG2O4  1  0.329632525712  0.102486650838
 CT1X CG2O5  1  0.347450500075  0.125520000000
 CT1X CG2O6  1  0.347450500075  0.110698234855
 CT1X CG2O7  1  0.308518226092  0.100764063435
 CT1X CG2R51  1  0.356359487256  0.093557084179
 CT1X CG2R52  1  0.365268474438  0.059170695450
 CT1X CG2R53  1  0.365268474438  0.059170695450
 CT1X CG2R57  1  0.356359487256  0.093557084179
 CT1X CG25C1  1  0.355468588538  0.109105371453
 CT1X CG25C2  1  0.355468588538  0.109105371453
 CT1X CG251O  1  0.355468588538  0.109105371453
 CT1X CG252O  1  0.355468588538  0.109105371453
 CT1X CG2R61  1  0.346773417049  0.110698234855
 CT1X CG2R62  1  0.338541512893  0.125520000000
 CT1X CG2R63  1  0.338541512893  0.132309697301
 CT1X CG2R64  1  0.356359487256  0.083680000000
 CT1X CG2R66  1  0.338541512893  0.110698234855
 CT1X CG2R67  1  0.346773417049  0.110698234855
 CT1X CG2RC0  1  0.334977918021  0.131646486622
 CT1X CG2R71  1  0.346987232741  0.108300154755
 CT1X CG2RC7  1  0.334977918021  0.131646486622
 CT1X CG301  1  0.338541512893  0.041840000000
 CT1X CG302  1  0.374177461619  0.059170695450
 CT1X CG311  1  0.338541512893  0.041840000000
 CT1X CG312  1  0.351904993665  0.085746484010
 CT1X CG314  1  0.338541512893  0.041840000000
 CT1X CG321  1  0.338541512893  0.041840000000
 CT1X CG322  1  0.338541512893  0.102486650838
 CT1X CG323  1  0.365268474438  0.138767581228
 CT1X CG324  1  0.338541512893  0.041840000000
 CT1X CG331  1  0.338541512893  0.041840000000
 CT1X CG334  1  0.338541512893  0.041840000000
 CT1X CG3C50  1  0.338541512893  0.041840000000
 CT1X CG3C51  1  0.338541512893  0.041840000000
 CT1X CG3C52  1  0.338541512893  0.041840000000
 CT1X CG3C53  1  0.338541512893  0.041840000000
 CT1X CG3C54  1  0.338541512893  0.041840000000
 CT1X CG3C31  1  0.338541512893  0.041840000000
 CT1X CG3C41  1  0.338541512893  0.041840000000
 CT1X CG3RC1  1  0.338541512893  0.041840000000
 CT1X CG3AM0  1  0.344777803920  0.110698234855
 CT1X CG3AM1  1  0.345668702638  0.116852760686
 CT1X CG3AM2  1  0.346559601357  0.118341390899
 CT1X NG1T1  1  0.328741626994  0.177512086349
 CT1X NG2D1  1  0.334087019303  0.187114168357
 CT1X NG2S0  1  0.334087019303  0.004184000000
 CT1X NG2S1  1  0.307360057758  0.187114168357
 CT1X NG2S2  1  0.334087019303  0.187114168357
 CT1X NG2S3  1  0.334087019303  0.187114168357
 CT1X NG2O1  1  0.334087019303  0.187114168357
 CT1X NG2P1  1  0.334087019303  0.187114168357
 CT1X NG2R43  1  0.334087019303  0.187114168357
 CT1X NG2R50  1  0.334087019303  0.187114168357
 CT1X NG2R51  1  0.334087019303  0.187114168357
 CT1X NG2R52  1  0.334087019303  0.187114168357
 CT1X NG2R53  1  0.334087019303  0.187114168357
 CT1X NG2R57  1  0.334087019303  0.187114168357
 CT1X NG2R60  1  0.337650614175  0.102486650838
 CT1X NG2R61  1  0.334087019303  0.187114168357
 CT1X NG2R62  1  0.352795892384  0.093557084179
 CT1X NG2R67  1  0.334087019303  0.187114168357
 CT1X NG2RC0  1  0.334087019303  0.187114168357
 CT1X NG301  1  0.347450500075  0.078275472531
 CT1X NG311  1  0.347450500075  0.088756043175
 CT1X NG321  1  0.346559601357  0.102486650838
 CT1X NG331  1  0.345668702638  0.110698234855
 CT1X NG3C51  1  0.334087019303  0.187114168357
 CT1X NG3N1  1  0.351904993665  0.102486650838
 CT1X NG3P0  1  0.334087019303  0.187114168357
 CT1X NG3P1  1  0.334087019303  0.187114168357
 CT1X NG3P2  1  0.334087019303  0.187114168357
 CT1X NG3P3  1  0.334087019303  0.187114168357
 CT1X OG2D1  1  0.293996576986  0.144938011577
 CT1X OG2D2  1  0.320723538531  0.144938011577
 CT1X OG2D3  1  0.293996576986  0.144938011577
 CT1X OG2D4  1  0.320723538531  0.144938011577
 CT1X OG2D5  1  0.320010819556  0.169954883425
 CT1X OG2N1  1  0.320723538531  0.144938011577
 CT1X OG2P1  1  0.320723538531  0.144938011577
 CT1X OG2R50  1  0.320723538531  0.144938011577
 CT1X OG3R60  1  0.316269044940  0.132309697301
 CT1X OG301  1  0.316269044940  0.132309697301
 CT1X OG302  1  0.316269044940  0.132309697301
 CT1X OG303  1  0.316269044940  0.132309697301
 CT1X OG304  1  0.316269044940  0.132309697301
 CT1X OG311  1  0.326514380198  0.183381431383
 CT1X OG312  1  0.325178032121  0.144938011577
 CT1X OG3C31  1  0.316269044940  0.132309697301
 CT1X OG3C51  1  0.316269044940  0.132309697301
 CT1X OG3C61  1  0.316269044940  0.132309697301
 CT1X OGTIP3  1  0.326799467788  0.163176000000
 CT1X SG2D1  1  0.351904993665  0.314496560236
 CT1X SG2R50  1  0.347450500075  0.280671252536
 CT1X SG311  1  0.347450500075  0.280671252536
 CT1X SG301  1  0.345223253279  0.257919081884
 CT1X SG302  1  0.365268474438  0.286840588481
 CT1X SG3O1  1  0.356359487256  0.286840588481
 CT1X SG3O2  1  0.347450500075  0.247528778125
 CT1X SG3O3  1  0.347450500075  0.247528778125
 CT1X  FGA1  1  0.314487247504  0.153729976257
 CT1X  FGA2  1  0.314487247504  0.135577095411
 CT1X  FGA3  1  0.311814551349  0.130309939452
 CT1X  FGP1  1  0.311814551349  0.130309939452
 CT1X  FGR1  1  0.320723538531  0.144938011577
 CT1X CLGA1  1  0.339432411611  0.245040988571
 CT1X CLGA3  1  0.339432411611  0.232955260941
 CT1X BRGA1  1  0.344777803920  0.289876023155
 CT1X BRGA2  1  0.351904993665  0.304599797767
 CT1X BRGA3  1  0.347450500075  0.307459952514
 CT1X   SOD  1  0.294954293108  0.090610410351
 CT1X   CLA  1  0.371504765465  0.162045623205
 CT1X   PG0  1  0.360813980847  0.320014464673
 CT1X   PG1  1  0.360813980847  0.320014464673
 CT1X   PG2  1  0.360813980847  0.320014464673
 CT1X  ALG1  1  0.347450500075  0.337324864189
 CT1X   LPH  1  0.169270756447  0.000000000000
 CT1X CLGR1  1  0.334977918021  0.200657590935
 CT1X BRGR1  1  0.345668702638  0.236682781799
 CT1X  IGR1  1  0.368832069310  0.301712530731
 CT1X SG2P1  1  0.355798221064  0.332305491450
 CT1X OG2S1  1  0.318906105146  0.157831660601
 CT1X SG2P2  1  0.352314807076  0.329421919951
 CT1X SEGD1  1  0.363041227642  0.330244580395
 CT1X BG201  1  0.396449929572  0.081561175077
 CT1X CC301  1  0.338541512893  0.041840000000
 CT1X CC3062  1  0.338541512893  0.041840000000
 CT1X CC311  1  0.338541512893  0.041840000000
 CT1X CC3161  1  0.338541512893  0.041840000000
 CT1X CC3162  1  0.338541512893  0.041840000000
 CT1X CC3163  1  0.338541512893  0.041840000000
 CT1X CC321  1  0.338541512893  0.041840000000
 CT1X CC3261  1  0.338541512893  0.041840000000
 CT1X CC3263  1  0.338541512893  0.041840000000
 CT1X CC331  1  0.338541512893  0.041840000000
 CT1X CC2O1  1  0.347450500075  0.138767581228
 CT1X CC2O2  1  0.347450500075  0.110698234855
 CT1X CC2O3  1  0.347450500075  0.125520000000
 CT1X CC2O4  1  0.329632525712  0.102486650838
 CT1X CC2O5  1  0.320723538531  0.130979917850
 CT1X OC2D1  1  0.293996576986  0.144938011577
 CT1X OC2D2  1  0.320723538531  0.144938011577
 CT1X OC2D3  1  0.293996576986  0.144938011577
 CT1X OC2D4  1  0.293996576986  0.144938011577
 CT1X OC3C61  1  0.316269044940  0.132309697301
 CT1X OC311  1  0.326514380198  0.183381431383
 CT1X NC2D1  1  0.307360057758  0.187114168357
 CT1X  HCP1  1  0.189271432669  0.089736802707
 CT1X  HCA1  1  0.288651184677  0.088756043175
 CT1X  HCA2  1  0.288651184677  0.078275472531
 CT1X  HCA3  1  0.288651184677  0.064818249282
 CT1X CC312  1  0.338541512893  0.041840000000
 CT1X CC322  1  0.338541512893  0.041840000000
 CT1X  HCR1  1  0.240542653898  0.089736802707
 CT1X HCA3M  1  0.288651184677  0.064818249282
 CT1X CC321C  1  0.338541512893  0.041840000000
 CT1X CC321D  1  0.338541512893  0.041840000000
 CT1X CC311C  1  0.338541512893  0.041840000000
 CT1X CC311D  1  0.338541512893  0.041840000000
 CT1X OC301  1  0.316269044940  0.132309697301
 CT1X OC302  1  0.316269044940  0.132309697301
 CT1X HCP1M  1  0.189271432669  0.089736802707
 CT1X OC311M  1  0.326514380198  0.183381431383
 CT1X OC3C5M  1  0.316269044940  0.132309697301
 CT1X CC322C  1  0.338541512893  0.041840000000
 CT1X HCA2C2  1  0.285087589805  0.078275472531
 CT1X CC312C  1  0.338541512893  0.041840000000
 CT1X HCA1C2  1  0.288651184677  0.088756043175
 CT1X OC3C51  1  0.316269044940  0.132309697301
 CT1X CC3152  1  0.338541512893  0.041840000000
 CT1X CC3051  1  0.338541512893  0.041840000000
 CT1X CC3251  1  0.338541512893  0.041840000000
 CT1X CC3151  1  0.338541512893  0.041840000000
 CT1X CC3153  1  0.338541512893  0.041840000000
 CT1X OC2DP  1  0.320723538531  0.144938011577
 CT1X OC312  1  0.326959829558  0.163176000000
 CT1X OC30P  1  0.326959829558  0.163176000000
 CT1X    PC  1  0.360813980847  0.320014464673
 CT1X    SC  1  0.356359487256  0.286840588481
 CT1X CC312D  1  0.338541512893  0.041840000000
 CT1X OC303  1  0.316269044940  0.132309697301
 CT1X NC311  1  0.347450500075  0.088756043175
 CT1X   HN1  1  0.189271432669  0.089736802707
 CT1X   HN2  1  0.189271432669  0.089736802707
 CT1X   HN3  1  0.267269615442  0.089736802707
 CT1X   HN4  1  0.189271432669  0.089736802707
 CT1X   HN5  1  0.189271432669  0.089736802707
 CT1X   HN6  1  0.286869387241  0.062058748940
 CT1X   HN7  1  0.286869387241  0.062058748940
 CT1X   HN8  1  0.288651184677  0.070011711020
 CT1X   HN9  1  0.288651184677  0.064818249282
 CT1X   NN1  1  0.334087019303  0.187114168357
 CT1X   NN2  1  0.334087019303  0.187114168357
 CT1X  NN2B  1  0.334087019303  0.187114168357
 CT1X  NN2G  1  0.334087019303  0.187114168357
 CT1X  NN2U  1  0.334087019303  0.187114168357
 CT1X   NN3  1  0.334087019303  0.187114168357
 CT1X  NN3A  1  0.334087019303  0.187114168357
 CT1X  NN3G  1  0.334087019303  0.187114168357
 CT1X   NN4  1  0.334087019303  0.187114168357
 CT1X   NN6  1  0.334087019303  0.187114168357
 CT1X   ON1  1  0.320723538531  0.144938011577
 CT1X  ON1C  1  0.320723538531  0.144938011577
 CT1X   ON2  1  0.326959829558  0.163176000000
 CT1X   ON3  1  0.320723538531  0.144938011577
 CT1X   ON4  1  0.326959829558  0.163176000000
 CT1X   ON5  1  0.326959829558  0.163176000000
 CT1X   ON6  1  0.326959829558  0.163176000000
 CT1X  ON6B  1  0.326959829558  0.163176000000
 CT1X   CN1  1  0.338541512893  0.132309697301
 CT1X  CN1T  1  0.338541512893  0.132309697301
 CT1X   CN2  1  0.338541512893  0.132309697301
 CT1X   CN3  1  0.338541512893  0.125520000000
 CT1X  CN3T  1  0.338541512893  0.125520000000
 CT1X   CN4  1  0.338541512893  0.114583559030
 CT1X   CN5  1  0.338541512893  0.114583559030
 CT1X  CN5G  1  0.338541512893  0.114583559030
 CT1X   CN7  1  0.338541512893  0.041840000000
 CT1X  CN7B  1  0.338541512893  0.041840000000
 CT1X   CN8  1  0.338541512893  0.041840000000
 CT1X  CN8B  1  0.338541512893  0.041840000000
 CT1X   CN9  1  0.338541512893  0.041840000000
 CT1X     P  1  0.360813980847  0.320014464673
 CT1X    P2  1  0.360813980847  0.320014464673
 CT1X    P3  1  0.360813980847  0.320014464673
 CT1X    P4  1  0.360813980847  0.320014464673
 CT1X   HOL  1  0.189271432669  0.089736802707
 CT1X  HAL1  1  0.286869387241  0.062058748940
 CT1X  HAL2  1  0.288651184677  0.070011711020
 CT1X  HAL3  1  0.288651184677  0.064818249282
 CT1X   HBL  1  0.286869387241  0.062058748940
 CT1X   HCL  1  0.189271432669  0.089736802707
 CT1X    HL  1  0.231633666716  0.089736802707
 CT1X  HEL1  1  0.280633096214  0.073666921749
 CT1X  HEL2  1  0.281523994932  0.067464972838
 CT1X    CL  1  0.347450500075  0.110698234855
 CT1X   CCL  1  0.347450500075  0.110698234855
 CT1X  CTL1  1  0.338541512893  0.041840000000
 CT1X  CTL2  1  0.338541512893  0.041840000000
 CT1X  CTL3  1  0.338541512893  0.041840000000
 CT1X  CTL5  1  0.338541512893  0.041840000000
 CT1X  CEL1  1  0.355468588538  0.109105371453
 CT1X  CEL2  1  0.354577689820  0.105847757841
 CT1X  CRL1  1  0.338541512893  0.041840000000
 CT1X  CRL2  1  0.338541512893  0.041840000000
 CT1X   OBL  1  0.293996576986  0.144938011577
 CT1X   OCL  1  0.320723538531  0.144938011577
 CT1X   O2L  1  0.320723538531  0.144938011577
 CT1X   OHL  1  0.326959829558  0.163176000000
 CT1X   OSL  1  0.316269044940  0.132309697301
 CT1X  OSLP  1  0.316269044940  0.132309697301
 CT1X  NH3L  1  0.334087019303  0.187114168357
 CT1X   NTL  1  0.334087019303  0.187114168357
 CT1X    SL  1  0.356359487256  0.286840588481
 CT1X    PL  1  0.360813980847  0.320014464673
 CT1X HCA1A  1  0.288651184677  0.088756043175
 CT1X HCA2A  1  0.288651184677  0.078275472531
 CT1X HCA3A  1  0.288651184677  0.064818249282
 CT1X CC30A  1  0.338541512893  0.041840000000
 CT1X CC31A  1  0.338541512893  0.041840000000
 CT1X CC32A  1  0.338541512893  0.041840000000
 CT1X CC33A  1  0.338541512893  0.041840000000
 CT1X CC326A  1  0.338541512893  0.041840000000
 CT1X HCA25A  1  0.285087589805  0.078275472531
 CT1X CC325A  1  0.338541512893  0.041840000000
 CT1X CC325B  1  0.338541512893  0.041840000000
 CT1X OC305A  1  0.316269044940  0.132309697301
 CT1X OC30A  1  0.316269044940  0.132309697301
 CT1X  HSIO  1  0.189271432669  0.089736802707
 CT1X  HSIA  1  0.286869387241  0.062058748940
 CT1X   HAL  1  0.286869387241  0.062058748940
 CT1X    AL  1  0.365268474438  0.337324864189
 CT1X    SI  1  0.365268474438  0.324091246411
 CT1X  SIH3  1  0.365268474438  0.324091246411
 CT1X  OSIH  1  0.326959829558  0.163176000000
 CT1X  OSIE  1  0.326959829558  0.163176000000
 CT1X  OSIA  1  0.326959829558  0.163176000000
 CT1X   OAL  1  0.326959829558  0.163176000000
 CT1X    HT  1  0.189271432669  0.089736802707
 CT1X    OT  1  0.326799467788  0.163176000000
 CT1X   DUM  1  0.169270756447  0.000000000000
 CT1X    CM  1  0.356359487256  0.138767581228
 CT1X   CPA  1  0.329632525712  0.125520000000
 CT1X   CPB  1  0.329632525712  0.125520000000
 CT1X   CPM  1  0.329632525712  0.125520000000
 CT1X   CST  1  0.308518226092  0.100764063435
 CT1X  CT1X  1  0.338541512893  0.041840000000
 CT1X  CT2X  1  0.338541512893  0.041840000000
 CT1X  CT3X  1  0.338541512893  0.041840000000
 CT1X    HB  1  0.286869387241  0.062058748940
 CT1X   NPH  1  0.334087019303  0.187114168357
 CT1X    OM  1  0.320723538531  0.144938011577
 CT1X   OST  1  0.320010819556  0.169954883425
 CT1X   POT  1  0.326403017859  0.123410269913
 CT1X   CAL  1  0.291056611216  0.144938011577
 CT1X    MG  1  0.274842254546  0.051243325419
 CT1X   CES  1  0.356359487256  0.182376331798
 CT1X    ZN  1  0.266378716724  0.209200000000
 CT1X    FE  1  0.227179173126  0.000000000000
 CT1X    HE  1  0.301123766731  0.061020452073
 CT1X    NE  1  0.305578260322  0.122698965603
 CT1X  CLAL  1  0.339272049842  0.072469005789
 CT1X    AG  1  0.300901042052  0.893457908130
 CT1X    AU  1  0.300722862308  0.962320000000
 CT1X    CU  1  0.285800308779  0.908997471504
 CT1X    NI  1  0.282949432881  0.994525446633
 CT1X    PB  1  0.328073452955  0.716185437439
 CT1X    PD  1  0.294842930769  1.037598257516
 CT1X    PT  1  0.296001099102  1.168527606863
 CT1X   CAP  1  0.346773417049  0.110698234855
 CT1X    FA  1  0.320723538531  0.144938011577
 CT1X    CN  1  0.325178032121  0.187114168357
 CT1X    NC  1  0.334087019303  0.324091246411
 CT1X   OCA  1  0.293996576986  0.144938011577
 CT1X   COA  1  0.347450500075  0.138767581228
 CT1X   CF1  1  0.338541512893  0.102486650838
 CT1X   CF2  1  0.351904993665  0.085746484010
 CT1X   CF3  1  0.374177461619  0.059170695450
 CT1X   HF1  1  0.286869387241  0.070011711020
 CT1X   HF2  1  0.285087589805  0.072469005789
 CT1X    F1  1  0.314487247504  0.153729976257
 CT1X    F2  1  0.314487247504  0.135577095411
 CT1X    F3  1  0.311814551349  0.130309939452
 CT1X    OX  1  0.320723538531  0.144938011577
 CT1X    HX  1  0.189271432669  0.089736802707
 CT1X  HPER  1  0.189271432669  0.089736802707
 CT1X  OPER  1  0.318427692534  0.188901923946
 CT1X   LIT  1  0.284864865125  0.020196198771
 CT1X   RUB  1  0.338541512893  0.162045623205
 CT1X   BAR  1  0.337650614175  0.162045623205
 CT1X   CAD  1  0.290165712498  0.144938011577
 CT1X  ON2B  1  0.326959829558  0.163176000000
 CT1X    SP  1  0.365268474438  0.280671252536
 CT1X   HNP  1  0.290272620344  0.072469005789
 CT1X  HNE1  1  0.280633096214  0.073666921749
 CT1X  HNE2  1  0.281523994932  0.067464972838
 CT1X  CN3D  1  0.338541512893  0.125520000000
 CT1X  CNE1  1  0.355468588538  0.109105371453
 CT1X  CNE2  1  0.354577689820  0.105847757841
 CT1X   CNA  1  0.346773417049  0.110698234855
 CT1X  CNA2  1  0.338541512893  0.110698234855
 CT1X   CNG  1  0.347450500075  0.138767581228
 CT1X  NN1C  1  0.334087019303  0.187114168357
 CT1X  NN2C  1  0.334087019303  0.187114168357
 CT1X  NN3I  1  0.334087019303  0.187114168357
 CT1X   NNG  1  0.334087019303  0.187114168357
 CT1X   FNA  1  0.320723538531  0.144938011577
 CT1X  ON2M  1  0.316269044940  0.132309697301
 CT1X   CN6  1  0.338541512893  0.041840000000
 CT1X  CN7E  1  0.338541512893  0.041840000000
 CT1X  CT2P  1  0.338541512893  0.041840000000
 CT1X  CTD1  1  0.338541512893  0.041840000000
 CT1X  CPD1  1  0.338541512893  0.041840000000
 CT1X  CC1A  1  0.355468588538  0.109105371453
 CT1X  CC1B  1  0.355468588538  0.109105371453
 CT1X   CC2  1  0.354577689820  0.105847757841
 CT1X   NS1  1  0.334087019303  0.187114168357
 CT1X   NS2  1  0.334087019303  0.187114168357
 CT1X   NHL  1  0.307360057758  0.187114168357
 CT1X  CTO1  1  0.338541512893  0.041840000000
 CT1X  CEL3  1  0.355468588538  0.109105371453
 CT1X  CTO2  1  0.338541512893  0.041840000000
 CT1X  HN3B  1  0.249451641079  0.089736802707
 CT1X  CN1A  1  0.347450500075  0.110698234855
 CT1X  CN3A  1  0.329632525712  0.177512086349
 CT1X  CN3B  1  0.329632525712  0.177512086349
 CT1X  CN3C  1  0.329632525712  0.177512086349
 CT2X     C  1  0.347450500075  0.138767581228
 CT2X    CA  1  0.346773417049  0.110698234855
 CT2X    CC  1  0.347450500075  0.110698234855
 CT2X    CD  1  0.347450500075  0.110698234855
 CT2X   CE1  1  0.355468588538  0.109105371453
 CT2X   CE2  1  0.354577689820  0.105847757841
 CT2X   CP1  1  0.338541512893  0.041840000000
 CT2X   CP2  1  0.338541512893  0.041840000000
 CT2X   CP3  1  0.338541512893  0.041840000000
 CT2X  CPH1  1  0.329632525712  0.093557084179
 CT2X  CPH2  1  0.329632525712  0.093557084179
 CT2X    CS  1  0.365268474438  0.138767581228
 CT2X   CPT  1  0.334977918021  0.131646486622
 CT2X    CY  1  0.346559601357  0.113045454929
 CT2X   CAI  1  0.346559601357  0.113045454929
 CT2X    CT  1  0.338541512893  0.041840000000
 CT2X   CT1  1  0.338541512893  0.041840000000
 CT2X   CT2  1  0.338541512893  0.041840000000
 CT2X  CT2A  1  0.338541512893  0.041840000000
 CT2X   CT3  1  0.338541512893  0.041840000000
 CT2X    C3  1  0.371950214824  0.059170695450
 CT2X     H  1  0.189271432669  0.089736802707
 CT2X    HA  1  0.286869387241  0.062058748940
 CT2X   HB1  1  0.286869387241  0.062058748940
 CT2X   HB2  1  0.288651184677  0.070011711020
 CT2X   HE1  1  0.280633096214  0.073666921749
 CT2X   HE2  1  0.281523994932  0.067464972838
 CT2X    HC  1  0.189271432669  0.089736802707
 CT2X    HP  1  0.290272620344  0.072469005789
 CT2X   HR1  1  0.249451641079  0.089736802707
 CT2X   HR2  1  0.231633666716  0.089736802707
 CT2X   HR3  1  0.300054688270  0.036952087465
 CT2X    HS  1  0.209361198763  0.132309697301
 CT2X   HA1  1  0.288651184677  0.088756043175
 CT2X   HA2  1  0.288651184677  0.077149148019
 CT2X   HA3  1  0.288651184677  0.064818249282
 CT2X     N  1  0.334087019303  0.004184000000
 CT2X   NC2  1  0.334087019303  0.187114168357
 CT2X   NH1  1  0.307360057758  0.187114168357
 CT2X   NH2  1  0.334087019303  0.187114168357
 CT2X   NH3  1  0.334087019303  0.187114168357
 CT2X    NP  1  0.334087019303  0.187114168357
 CT2X   NR1  1  0.334087019303  0.187114168357
 CT2X   NR2  1  0.334087019303  0.187114168357
 CT2X   NR3  1  0.334087019303  0.187114168357
 CT2X    NY  1  0.334087019303  0.187114168357
 CT2X     O  1  0.293996576986  0.144938011577
 CT2X    OB  1  0.293996576986  0.144938011577
 CT2X    OC  1  0.320723538531  0.144938011577
 CT2X   OH1  1  0.326959829558  0.163176000000
 CT2X    OS  1  0.326959829558  0.163176000000
 CT2X     S  1  0.347450500075  0.280671252536
 CT2X    SM  1  0.345223253279  0.257919081884
 CT2X    SS  1  0.365268474438  0.286840588481
 CT2X  HGA1  1  0.288651184677  0.088756043175
 CT2X  HGA2  1  0.288651184677  0.078275472531
 CT2X  HGA3  1  0.288651184677  0.064818249282
 CT2X  HGA4  1  0.280633096214  0.073666921749
 CT2X  HGA5  1  0.281523994932  0.067464972838
 CT2X  HGA6  1  0.286869387241  0.070011711020
 CT2X  HGA7  1  0.285087589805  0.072469005789
 CT2X HGAAM0  1  0.283305792369  0.070011711020
 CT2X HGAAM1  1  0.283305792369  0.070011711020
 CT2X HGAAM2  1  0.281523994932  0.083680000000
 CT2X  HGP1  1  0.189271432669  0.089736802707
 CT2X  HGP2  1  0.189271432669  0.089736802707
 CT2X  HGP3  1  0.209361198763  0.132309697301
 CT2X  HGP4  1  0.189271432669  0.089736802707
 CT2X  HGP5  1  0.231633666716  0.089736802707
 CT2X HGPAM1  1  0.247224394284  0.039692909190
 CT2X HGPAM2  1  0.247224394284  0.041840000000
 CT2X HGPAM3  1  0.246778944925  0.045833423612
 CT2X HGR51  1  0.290272620344  0.072469005789
 CT2X HGR52  1  0.249451641079  0.089736802707
 CT2X HGR53  1  0.231633666716  0.089736802707
 CT2X HGR61  1  0.290272620344  0.072469005789
 CT2X HGR62  1  0.267269615442  0.089736802707
 CT2X HGR63  1  0.249451641079  0.089736802707
 CT2X HGR71  1  0.290272620344  0.072469005789
 CT2X HGTIP3  1  0.189271432669  0.089736802707
 CT2X CG1T1  1  0.333196120584  0.170981810495
 CT2X CG1T2  1  0.346782326036  0.134409982486
 CT2X CG1N1  1  0.335868816739  0.177512086349
 CT2X CG2D1  1  0.355468588538  0.109105371453
 CT2X CG2D2  1  0.354577689820  0.105847757841
 CT2X CG2D1O  1  0.355468588538  0.109105371453
 CT2X CG2D2O  1  0.355468588538  0.109105371453
 CT2X CG2DC1  1  0.355468588538  0.109105371453
 CT2X CG2DC2  1  0.355468588538  0.109105371453
 CT2X CG2DC3  1  0.354577689820  0.105847757841
 CT2X CG2N1  1  0.347450500075  0.138767581228
 CT2X CG2N2  1  0.347450500075  0.138767581228
 CT2X CG2O1  1  0.347450500075  0.138767581228
 CT2X CG2O2  1  0.320723538531  0.130979917850
 CT2X CG2O3  1  0.347450500075  0.110698234855
 CT2X CG2O4  1  0.329632525712  0.102486650838
 CT2X CG2O5  1  0.347450500075  0.125520000000
 CT2X CG2O6  1  0.347450500075  0.110698234855
 CT2X CG2O7  1  0.308518226092  0.100764063435
 CT2X CG2R51  1  0.356359487256  0.093557084179
 CT2X CG2R52  1  0.365268474438  0.059170695450
 CT2X CG2R53  1  0.365268474438  0.059170695450
 CT2X CG2R57  1  0.356359487256  0.093557084179
 CT2X CG25C1  1  0.355468588538  0.109105371453
 CT2X CG25C2  1  0.355468588538  0.109105371453
 CT2X CG251O  1  0.355468588538  0.109105371453
 CT2X CG252O  1  0.355468588538  0.109105371453
 CT2X CG2R61  1  0.346773417049  0.110698234855
 CT2X CG2R62  1  0.338541512893  0.125520000000
 CT2X CG2R63  1  0.338541512893  0.132309697301
 CT2X CG2R64  1  0.356359487256  0.083680000000
 CT2X CG2R66  1  0.338541512893  0.110698234855
 CT2X CG2R67  1  0.346773417049  0.110698234855
 CT2X CG2RC0  1  0.334977918021  0.131646486622
 CT2X CG2R71  1  0.346987232741  0.108300154755
 CT2X CG2RC7  1  0.334977918021  0.131646486622
 CT2X CG301  1  0.338541512893  0.041840000000
 CT2X CG302  1  0.374177461619  0.059170695450
 CT2X CG311  1  0.338541512893  0.041840000000
 CT2X CG312  1  0.351904993665  0.085746484010
 CT2X CG314  1  0.338541512893  0.041840000000
 CT2X CG321  1  0.338541512893  0.041840000000
 CT2X CG322  1  0.338541512893  0.102486650838
 CT2X CG323  1  0.365268474438  0.138767581228
 CT2X CG324  1  0.338541512893  0.041840000000
 CT2X CG331  1  0.338541512893  0.041840000000
 CT2X CG334  1  0.338541512893  0.041840000000
 CT2X CG3C50  1  0.338541512893  0.041840000000
 CT2X CG3C51  1  0.338541512893  0.041840000000
 CT2X CG3C52  1  0.338541512893  0.041840000000
 CT2X CG3C53  1  0.338541512893  0.041840000000
 CT2X CG3C54  1  0.338541512893  0.041840000000
 CT2X CG3C31  1  0.338541512893  0.041840000000
 CT2X CG3C41  1  0.338541512893  0.041840000000
 CT2X CG3RC1  1  0.338541512893  0.041840000000
 CT2X CG3AM0  1  0.344777803920  0.110698234855
 CT2X CG3AM1  1  0.345668702638  0.116852760686
 CT2X CG3AM2  1  0.346559601357  0.118341390899
 CT2X NG1T1  1  0.328741626994  0.177512086349
 CT2X NG2D1  1  0.334087019303  0.187114168357
 CT2X NG2S0  1  0.334087019303  0.004184000000
 CT2X NG2S1  1  0.307360057758  0.187114168357
 CT2X NG2S2  1  0.334087019303  0.187114168357
 CT2X NG2S3  1  0.334087019303  0.187114168357
 CT2X NG2O1  1  0.334087019303  0.187114168357
 CT2X NG2P1  1  0.334087019303  0.187114168357
 CT2X NG2R43  1  0.334087019303  0.187114168357
 CT2X NG2R50  1  0.334087019303  0.187114168357
 CT2X NG2R51  1  0.334087019303  0.187114168357
 CT2X NG2R52  1  0.334087019303  0.187114168357
 CT2X NG2R53  1  0.334087019303  0.187114168357
 CT2X NG2R57  1  0.334087019303  0.187114168357
 CT2X NG2R60  1  0.337650614175  0.102486650838
 CT2X NG2R61  1  0.334087019303  0.187114168357
 CT2X NG2R62  1  0.352795892384  0.093557084179
 CT2X NG2R67  1  0.334087019303  0.187114168357
 CT2X NG2RC0  1  0.334087019303  0.187114168357
 CT2X NG301  1  0.347450500075  0.078275472531
 CT2X NG311  1  0.347450500075  0.088756043175
 CT2X NG321  1  0.346559601357  0.102486650838
 CT2X NG331  1  0.345668702638  0.110698234855
 CT2X NG3C51  1  0.334087019303  0.187114168357
 CT2X NG3N1  1  0.351904993665  0.102486650838
 CT2X NG3P0  1  0.334087019303  0.187114168357
 CT2X NG3P1  1  0.334087019303  0.187114168357
 CT2X NG3P2  1  0.334087019303  0.187114168357
 CT2X NG3P3  1  0.334087019303  0.187114168357
 CT2X OG2D1  1  0.293996576986  0.144938011577
 CT2X OG2D2  1  0.320723538531  0.144938011577
 CT2X OG2D3  1  0.293996576986  0.144938011577
 CT2X OG2D4  1  0.320723538531  0.144938011577
 CT2X OG2D5  1  0.320010819556  0.169954883425
 CT2X OG2N1  1  0.320723538531  0.144938011577
 CT2X OG2P1  1  0.320723538531  0.144938011577
 CT2X OG2R50  1  0.320723538531  0.144938011577
 CT2X OG3R60  1  0.316269044940  0.132309697301
 CT2X OG301  1  0.316269044940  0.132309697301
 CT2X OG302  1  0.316269044940  0.132309697301
 CT2X OG303  1  0.316269044940  0.132309697301
 CT2X OG304  1  0.316269044940  0.132309697301
 CT2X OG311  1  0.326514380198  0.183381431383
 CT2X OG312  1  0.325178032121  0.144938011577
 CT2X OG3C31  1  0.316269044940  0.132309697301
 CT2X OG3C51  1  0.316269044940  0.132309697301
 CT2X OG3C61  1  0.316269044940  0.132309697301
 CT2X OGTIP3  1  0.326799467788  0.163176000000
 CT2X SG2D1  1  0.351904993665  0.314496560236
 CT2X SG2R50  1  0.347450500075  0.280671252536
 CT2X SG311  1  0.347450500075  0.280671252536
 CT2X SG301  1  0.345223253279  0.257919081884
 CT2X SG302  1  0.365268474438  0.286840588481
 CT2X SG3O1  1  0.356359487256  0.286840588481
 CT2X SG3O2  1  0.347450500075  0.247528778125
 CT2X SG3O3  1  0.347450500075  0.247528778125
 CT2X  FGA1  1  0.314487247504  0.153729976257
 CT2X  FGA2  1  0.314487247504  0.135577095411
 CT2X  FGA3  1  0.311814551349  0.130309939452
 CT2X  FGP1  1  0.311814551349  0.130309939452
 CT2X  FGR1  1  0.320723538531  0.144938011577
 CT2X CLGA1  1  0.339432411611  0.245040988571
 CT2X CLGA3  1  0.339432411611  0.232955260941
 CT2X BRGA1  1  0.344777803920  0.289876023155
 CT2X BRGA2  1  0.351904993665  0.304599797767
 CT2X BRGA3  1  0.347450500075  0.307459952514
 CT2X   SOD  1  0.294954293108  0.090610410351
 CT2X   CLA  1  0.371504765465  0.162045623205
 CT2X   PG0  1  0.360813980847  0.320014464673
 CT2X   PG1  1  0.360813980847  0.320014464673
 CT2X   PG2  1  0.360813980847  0.320014464673
 CT2X  ALG1  1  0.347450500075  0.337324864189
 CT2X   LPH  1  0.169270756447  0.000000000000
 CT2X CLGR1  1  0.334977918021  0.200657590935
 CT2X BRGR1  1  0.345668702638  0.236682781799
 CT2X  IGR1  1  0.368832069310  0.301712530731
 CT2X SG2P1  1  0.355798221064  0.332305491450
 CT2X OG2S1  1  0.318906105146  0.157831660601
 CT2X SG2P2  1  0.352314807076  0.329421919951
 CT2X SEGD1  1  0.363041227642  0.330244580395
 CT2X BG201  1  0.396449929572  0.081561175077
 CT2X CC301  1  0.338541512893  0.041840000000
 CT2X CC3062  1  0.338541512893  0.041840000000
 CT2X CC311  1  0.338541512893  0.041840000000
 CT2X CC3161  1  0.338541512893  0.041840000000
 CT2X CC3162  1  0.338541512893  0.041840000000
 CT2X CC3163  1  0.338541512893  0.041840000000
 CT2X CC321  1  0.338541512893  0.041840000000
 CT2X CC3261  1  0.338541512893  0.041840000000
 CT2X CC3263  1  0.338541512893  0.041840000000
 CT2X CC331  1  0.338541512893  0.041840000000
 CT2X CC2O1  1  0.347450500075  0.138767581228
 CT2X CC2O2  1  0.347450500075  0.110698234855
 CT2X CC2O3  1  0.347450500075  0.125520000000
 CT2X CC2O4  1  0.329632525712  0.102486650838
 CT2X CC2O5  1  0.320723538531  0.130979917850
 CT2X OC2D1  1  0.293996576986  0.144938011577
 CT2X OC2D2  1  0.320723538531  0.144938011577
 CT2X OC2D3  1  0.293996576986  0.144938011577
 CT2X OC2D4  1  0.293996576986  0.144938011577
 CT2X OC3C61  1  0.316269044940  0.132309697301
 CT2X OC311  1  0.326514380198  0.183381431383
 CT2X NC2D1  1  0.307360057758  0.187114168357
 CT2X  HCP1  1  0.189271432669  0.089736802707
 CT2X  HCA1  1  0.288651184677  0.088756043175
 CT2X  HCA2  1  0.288651184677  0.078275472531
 CT2X  HCA3  1  0.288651184677  0.064818249282
 CT2X CC312  1  0.338541512893  0.041840000000
 CT2X CC322  1  0.338541512893  0.041840000000
 CT2X  HCR1  1  0.240542653898  0.089736802707
 CT2X HCA3M  1  0.288651184677  0.064818249282
 CT2X CC321C  1  0.338541512893  0.041840000000
 CT2X CC321D  1  0.338541512893  0.041840000000
 CT2X CC311C  1  0.338541512893  0.041840000000
 CT2X CC311D  1  0.338541512893  0.041840000000
 CT2X OC301  1  0.316269044940  0.132309697301
 CT2X OC302  1  0.316269044940  0.132309697301
 CT2X HCP1M  1  0.189271432669  0.089736802707
 CT2X OC311M  1  0.326514380198  0.183381431383
 CT2X OC3C5M  1  0.316269044940  0.132309697301
 CT2X CC322C  1  0.338541512893  0.041840000000
 CT2X HCA2C2  1  0.285087589805  0.078275472531
 CT2X CC312C  1  0.338541512893  0.041840000000
 CT2X HCA1C2  1  0.288651184677  0.088756043175
 CT2X OC3C51  1  0.316269044940  0.132309697301
 CT2X CC3152  1  0.338541512893  0.041840000000
 CT2X CC3051  1  0.338541512893  0.041840000000
 CT2X CC3251  1  0.338541512893  0.041840000000
 CT2X CC3151  1  0.338541512893  0.041840000000
 CT2X CC3153  1  0.338541512893  0.041840000000
 CT2X OC2DP  1  0.320723538531  0.144938011577
 CT2X OC312  1  0.326959829558  0.163176000000
 CT2X OC30P  1  0.326959829558  0.163176000000
 CT2X    PC  1  0.360813980847  0.320014464673
 CT2X    SC  1  0.356359487256  0.286840588481
 CT2X CC312D  1  0.338541512893  0.041840000000
 CT2X OC303  1  0.316269044940  0.132309697301
 CT2X NC311  1  0.347450500075  0.088756043175
 CT2X   HN1  1  0.189271432669  0.089736802707
 CT2X   HN2  1  0.189271432669  0.089736802707
 CT2X   HN3  1  0.267269615442  0.089736802707
 CT2X   HN4  1  0.189271432669  0.089736802707
 CT2X   HN5  1  0.189271432669  0.089736802707
 CT2X   HN6  1  0.286869387241  0.062058748940
 CT2X   HN7  1  0.286869387241  0.062058748940
 CT2X   HN8  1  0.288651184677  0.070011711020
 CT2X   HN9  1  0.288651184677  0.064818249282
 CT2X   NN1  1  0.334087019303  0.187114168357
 CT2X   NN2  1  0.334087019303  0.187114168357
 CT2X  NN2B  1  0.334087019303  0.187114168357
 CT2X  NN2G  1  0.334087019303  0.187114168357
 CT2X  NN2U  1  0.334087019303  0.187114168357
 CT2X   NN3  1  0.334087019303  0.187114168357
 CT2X  NN3A  1  0.334087019303  0.187114168357
 CT2X  NN3G  1  0.334087019303  0.187114168357
 CT2X   NN4  1  0.334087019303  0.187114168357
 CT2X   NN6  1  0.334087019303  0.187114168357
 CT2X   ON1  1  0.320723538531  0.144938011577
 CT2X  ON1C  1  0.320723538531  0.144938011577
 CT2X   ON2  1  0.326959829558  0.163176000000
 CT2X   ON3  1  0.320723538531  0.144938011577
 CT2X   ON4  1  0.326959829558  0.163176000000
 CT2X   ON5  1  0.326959829558  0.163176000000
 CT2X   ON6  1  0.326959829558  0.163176000000
 CT2X  ON6B  1  0.326959829558  0.163176000000
 CT2X   CN1  1  0.338541512893  0.132309697301
 CT2X  CN1T  1  0.338541512893  0.132309697301
 CT2X   CN2  1  0.338541512893  0.132309697301
 CT2X   CN3  1  0.338541512893  0.125520000000
 CT2X  CN3T  1  0.338541512893  0.125520000000
 CT2X   CN4  1  0.338541512893  0.114583559030
 CT2X   CN5  1  0.338541512893  0.114583559030
 CT2X  CN5G  1  0.338541512893  0.114583559030
 CT2X   CN7  1  0.338541512893  0.041840000000
 CT2X  CN7B  1  0.338541512893  0.041840000000
 CT2X   CN8  1  0.338541512893  0.041840000000
 CT2X  CN8B  1  0.338541512893  0.041840000000
 CT2X   CN9  1  0.338541512893  0.041840000000
 CT2X     P  1  0.360813980847  0.320014464673
 CT2X    P2  1  0.360813980847  0.320014464673
 CT2X    P3  1  0.360813980847  0.320014464673
 CT2X    P4  1  0.360813980847  0.320014464673
 CT2X   HOL  1  0.189271432669  0.089736802707
 CT2X  HAL1  1  0.286869387241  0.062058748940
 CT2X  HAL2  1  0.288651184677  0.070011711020
 CT2X  HAL3  1  0.288651184677  0.064818249282
 CT2X   HBL  1  0.286869387241  0.062058748940
 CT2X   HCL  1  0.189271432669  0.089736802707
 CT2X    HL  1  0.231633666716  0.089736802707
 CT2X  HEL1  1  0.280633096214  0.073666921749
 CT2X  HEL2  1  0.281523994932  0.067464972838
 CT2X    CL  1  0.347450500075  0.110698234855
 CT2X   CCL  1  0.347450500075  0.110698234855
 CT2X  CTL1  1  0.338541512893  0.041840000000
 CT2X  CTL2  1  0.338541512893  0.041840000000
 CT2X  CTL3  1  0.338541512893  0.041840000000
 CT2X  CTL5  1  0.338541512893  0.041840000000
 CT2X  CEL1  1  0.355468588538  0.109105371453
 CT2X  CEL2  1  0.354577689820  0.105847757841
 CT2X  CRL1  1  0.338541512893  0.041840000000
 CT2X  CRL2  1  0.338541512893  0.041840000000
 CT2X   OBL  1  0.293996576986  0.144938011577
 CT2X   OCL  1  0.320723538531  0.144938011577
 CT2X   O2L  1  0.320723538531  0.144938011577
 CT2X   OHL  1  0.326959829558  0.163176000000
 CT2X   OSL  1  0.316269044940  0.132309697301
 CT2X  OSLP  1  0.316269044940  0.132309697301
 CT2X  NH3L  1  0.334087019303  0.187114168357
 CT2X   NTL  1  0.334087019303  0.187114168357
 CT2X    SL  1  0.356359487256  0.286840588481
 CT2X    PL  1  0.360813980847  0.320014464673
 CT2X HCA1A  1  0.288651184677  0.088756043175
 CT2X HCA2A  1  0.288651184677  0.078275472531
 CT2X HCA3A  1  0.288651184677  0.064818249282
 CT2X CC30A  1  0.338541512893  0.041840000000
 CT2X CC31A  1  0.338541512893  0.041840000000
 CT2X CC32A  1  0.338541512893  0.041840000000
 CT2X CC33A  1  0.338541512893  0.041840000000
 CT2X CC326A  1  0.338541512893  0.041840000000
 CT2X HCA25A  1  0.285087589805  0.078275472531
 CT2X CC325A  1  0.338541512893  0.041840000000
 CT2X CC325B  1  0.338541512893  0.041840000000
 CT2X OC305A  1  0.316269044940  0.132309697301
 CT2X OC30A  1  0.316269044940  0.132309697301
 CT2X  HSIO  1  0.189271432669  0.089736802707
 CT2X  HSIA  1  0.286869387241  0.062058748940
 CT2X   HAL  1  0.286869387241  0.062058748940
 CT2X    AL  1  0.365268474438  0.337324864189
 CT2X    SI  1  0.365268474438  0.324091246411
 CT2X  SIH3  1  0.365268474438  0.324091246411
 CT2X  OSIH  1  0.326959829558  0.163176000000
 CT2X  OSIE  1  0.326959829558  0.163176000000
 CT2X  OSIA  1  0.326959829558  0.163176000000
 CT2X   OAL  1  0.326959829558  0.163176000000
 CT2X    HT  1  0.189271432669  0.089736802707
 CT2X    OT  1  0.326799467788  0.163176000000
 CT2X   DUM  1  0.169270756447  0.000000000000
 CT2X    CM  1  0.356359487256  0.138767581228
 CT2X   CPA  1  0.329632525712  0.125520000000
 CT2X   CPB  1  0.329632525712  0.125520000000
 CT2X   CPM  1  0.329632525712  0.125520000000
 CT2X   CST  1  0.308518226092  0.100764063435
 CT2X  CT1X  1  0.338541512893  0.041840000000
 CT2X  CT2X  1  0.338541512893  0.041840000000
 CT2X  CT3X  1  0.338541512893  0.041840000000
 CT2X    HB  1  0.286869387241  0.062058748940
 CT2X   NPH  1  0.334087019303  0.187114168357
 CT2X    OM  1  0.320723538531  0.144938011577
 CT2X   OST  1  0.320010819556  0.169954883425
 CT2X   POT  1  0.326403017859  0.123410269913
 CT2X   CAL  1  0.291056611216  0.144938011577
 CT2X    MG  1  0.274842254546  0.051243325419
 CT2X   CES  1  0.356359487256  0.182376331798
 CT2X    ZN  1  0.266378716724  0.209200000000
 CT2X    FE  1  0.227179173126  0.000000000000
 CT2X    HE  1  0.301123766731  0.061020452073
 CT2X    NE  1  0.305578260322  0.122698965603
 CT2X  CLAL  1  0.339272049842  0.072469005789
 CT2X    AG  1  0.300901042052  0.893457908130
 CT2X    AU  1  0.300722862308  0.962320000000
 CT2X    CU  1  0.285800308779  0.908997471504
 CT2X    NI  1  0.282949432881  0.994525446633
 CT2X    PB  1  0.328073452955  0.716185437439
 CT2X    PD  1  0.294842930769  1.037598257516
 CT2X    PT  1  0.296001099102  1.168527606863
 CT2X   CAP  1  0.346773417049  0.110698234855
 CT2X    FA  1  0.320723538531  0.144938011577
 CT2X    CN  1  0.325178032121  0.187114168357
 CT2X    NC  1  0.334087019303  0.324091246411
 CT2X   OCA  1  0.293996576986  0.144938011577
 CT2X   COA  1  0.347450500075  0.138767581228
 CT2X   CF1  1  0.338541512893  0.102486650838
 CT2X   CF2  1  0.351904993665  0.085746484010
 CT2X   CF3  1  0.374177461619  0.059170695450
 CT2X   HF1  1  0.286869387241  0.070011711020
 CT2X   HF2  1  0.285087589805  0.072469005789
 CT2X    F1  1  0.314487247504  0.153729976257
 CT2X    F2  1  0.314487247504  0.135577095411
 CT2X    F3  1  0.311814551349  0.130309939452
 CT2X    OX  1  0.320723538531  0.144938011577
 CT2X    HX  1  0.189271432669  0.089736802707
 CT2X  HPER  1  0.189271432669  0.089736802707
 CT2X  OPER  1  0.318427692534  0.188901923946
 CT2X   LIT  1  0.284864865125  0.020196198771
 CT2X   RUB  1  0.338541512893  0.162045623205
 CT2X   BAR  1  0.337650614175  0.162045623205
 CT2X   CAD  1  0.290165712498  0.144938011577
 CT2X  ON2B  1  0.326959829558  0.163176000000
 CT2X    SP  1  0.365268474438  0.280671252536
 CT2X   HNP  1  0.290272620344  0.072469005789
 CT2X  HNE1  1  0.280633096214  0.073666921749
 CT2X  HNE2  1  0.281523994932  0.067464972838
 CT2X  CN3D  1  0.338541512893  0.125520000000
 CT2X  CNE1  1  0.355468588538  0.109105371453
 CT2X  CNE2  1  0.354577689820  0.105847757841
 CT2X   CNA  1  0.346773417049  0.110698234855
 CT2X  CNA2  1  0.338541512893  0.110698234855
 CT2X   CNG  1  0.347450500075  0.138767581228
 CT2X  NN1C  1  0.334087019303  0.187114168357
 CT2X  NN2C  1  0.334087019303  0.187114168357
 CT2X  NN3I  1  0.334087019303  0.187114168357
 CT2X   NNG  1  0.334087019303  0.187114168357
 CT2X   FNA  1  0.320723538531  0.144938011577
 CT2X  ON2M  1  0.316269044940  0.132309697301
 CT2X   CN6  1  0.338541512893  0.041840000000
 CT2X  CN7E  1  0.338541512893  0.041840000000
 CT2X  CT2P  1  0.338541512893  0.041840000000
 CT2X  CTD1  1  0.338541512893  0.041840000000
 CT2X  CPD1  1  0.338541512893  0.041840000000
 CT2X  CC1A  1  0.355468588538  0.109105371453
 CT2X  CC1B  1  0.355468588538  0.109105371453
 CT2X   CC2  1  0.354577689820  0.105847757841
 CT2X   NS1  1  0.334087019303  0.187114168357
 CT2X   NS2  1  0.334087019303  0.187114168357
 CT2X   NHL  1  0.307360057758  0.187114168357
 CT2X  CTO1  1  0.338541512893  0.041840000000
 CT2X  CEL3  1  0.355468588538  0.109105371453
 CT2X  CTO2  1  0.338541512893  0.041840000000
 CT2X  HN3B  1  0.249451641079  0.089736802707
 CT2X  CN1A  1  0.347450500075  0.110698234855
 CT2X  CN3A  1  0.329632525712  0.177512086349
 CT2X  CN3B  1  0.329632525712  0.177512086349
 CT2X  CN3C  1  0.329632525712  0.177512086349
 CT3X     C  1  0.347450500075  0.138767581228
 CT3X    CA  1  0.346773417049  0.110698234855
 CT3X    CC  1  0.347450500075  0.110698234855
 CT3X    CD  1  0.347450500075  0.110698234855
 CT3X   CE1  1  0.355468588538  0.109105371453
 CT3X   CE2  1  0.354577689820  0.105847757841
 CT3X   CP1  1  0.338541512893  0.041840000000
 CT3X   CP2  1  0.338541512893  0.041840000000
 CT3X   CP3  1  0.338541512893  0.041840000000
 CT3X  CPH1  1  0.329632525712  0.093557084179
 CT3X  CPH2  1  0.329632525712  0.093557084179
 CT3X    CS  1  0.365268474438  0.138767581228
 CT3X   CPT  1  0.334977918021  0.131646486622
 CT3X    CY  1  0.346559601357  0.113045454929
 CT3X   CAI  1  0.346559601357  0.113045454929
 CT3X    CT  1  0.338541512893  0.041840000000
 CT3X   CT1  1  0.338541512893  0.041840000000
 CT3X   CT2  1  0.338541512893  0.041840000000
 CT3X  CT2A  1  0.338541512893  0.041840000000
 CT3X   CT3  1  0.338541512893  0.041840000000
 CT3X    C3  1  0.371950214824  0.059170695450
 CT3X     H  1  0.189271432669  0.089736802707
 CT3X    HA  1  0.286869387241  0.062058748940
 CT3X   HB1  1  0.286869387241  0.062058748940
 CT3X   HB2  1  0.288651184677  0.070011711020
 CT3X   HE1  1  0.280633096214  0.073666921749
 CT3X   HE2  1  0.281523994932  0.067464972838
 CT3X    HC  1  0.189271432669  0.089736802707
 CT3X    HP  1  0.290272620344  0.072469005789
 CT3X   HR1  1  0.249451641079  0.089736802707
 CT3X   HR2  1  0.231633666716  0.089736802707
 CT3X   HR3  1  0.300054688270  0.036952087465
 CT3X    HS  1  0.209361198763  0.132309697301
 CT3X   HA1  1  0.288651184677  0.088756043175
 CT3X   HA2  1  0.288651184677  0.077149148019
 CT3X   HA3  1  0.288651184677  0.064818249282
 CT3X     N  1  0.334087019303  0.004184000000
 CT3X   NC2  1  0.334087019303  0.187114168357
 CT3X   NH1  1  0.307360057758  0.187114168357
 CT3X   NH2  1  0.334087019303  0.187114168357
 CT3X   NH3  1  0.334087019303  0.187114168357
 CT3X    NP  1  0.334087019303  0.187114168357
 CT3X   NR1  1  0.334087019303  0.187114168357
 CT3X   NR2  1  0.334087019303  0.187114168357
 CT3X   NR3  1  0.334087019303  0.187114168357
 CT3X    NY  1  0.334087019303  0.187114168357
 CT3X     O  1  0.293996576986  0.144938011577
 CT3X    OB  1  0.293996576986  0.144938011577
 CT3X    OC  1  0.320723538531  0.144938011577
 CT3X   OH1  1  0.326959829558  0.163176000000
 CT3X    OS  1  0.326959829558  0.163176000000
 CT3X     S  1  0.347450500075  0.280671252536
 CT3X    SM  1  0.345223253279  0.257919081884
 CT3X    SS  1  0.365268474438  0.286840588481
 CT3X  HGA1  1  0.288651184677  0.088756043175
 CT3X  HGA2  1  0.288651184677  0.078275472531
 CT3X  HGA3  1  0.288651184677  0.064818249282
 CT3X  HGA4  1  0.280633096214  0.073666921749
 CT3X  HGA5  1  0.281523994932  0.067464972838
 CT3X  HGA6  1  0.286869387241  0.070011711020
 CT3X  HGA7  1  0.285087589805  0.072469005789
 CT3X HGAAM0  1  0.283305792369  0.070011711020
 CT3X HGAAM1  1  0.283305792369  0.070011711020
 CT3X HGAAM2  1  0.281523994932  0.083680000000
 CT3X  HGP1  1  0.189271432669  0.089736802707
 CT3X  HGP2  1  0.189271432669  0.089736802707
 CT3X  HGP3  1  0.209361198763  0.132309697301
 CT3X  HGP4  1  0.189271432669  0.089736802707
 CT3X  HGP5  1  0.231633666716  0.089736802707
 CT3X HGPAM1  1  0.247224394284  0.039692909190
 CT3X HGPAM2  1  0.247224394284  0.041840000000
 CT3X HGPAM3  1  0.246778944925  0.045833423612
 CT3X HGR51  1  0.290272620344  0.072469005789
 CT3X HGR52  1  0.249451641079  0.089736802707
 CT3X HGR53  1  0.231633666716  0.089736802707
 CT3X HGR61  1  0.290272620344  0.072469005789
 CT3X HGR62  1  0.267269615442  0.089736802707
 CT3X HGR63  1  0.249451641079  0.089736802707
 CT3X HGR71  1  0.290272620344  0.072469005789
 CT3X HGTIP3  1  0.189271432669  0.089736802707
 CT3X CG1T1  1  0.333196120584  0.170981810495
 CT3X CG1T2  1  0.346782326036  0.134409982486
 CT3X CG1N1  1  0.335868816739  0.177512086349
 CT3X CG2D1  1  0.355468588538  0.109105371453
 CT3X CG2D2  1  0.354577689820  0.105847757841
 CT3X CG2D1O  1  0.355468588538  0.109105371453
 CT3X CG2D2O  1  0.355468588538  0.109105371453
 CT3X CG2DC1  1  0.355468588538  0.109105371453
 CT3X CG2DC2  1  0.355468588538  0.109105371453
 CT3X CG2DC3  1  0.354577689820  0.105847757841
 CT3X CG2N1  1  0.347450500075  0.138767581228
 CT3X CG2N2  1  0.347450500075  0.138767581228
 CT3X CG2O1  1  0.347450500075  0.138767581228
 CT3X CG2O2  1  0.320723538531  0.130979917850
 CT3X CG2O3  1  0.347450500075  0.110698234855
 CT3X CG2O4  1  0.329632525712  0.102486650838
 CT3X CG2O5  1  0.347450500075  0.125520000000
 CT3X CG2O6  1  0.347450500075  0.110698234855
 CT3X CG2O7  1  0.308518226092  0.100764063435
 CT3X CG2R51  1  0.356359487256  0.093557084179
 CT3X CG2R52  1  0.365268474438  0.059170695450
 CT3X CG2R53  1  0.365268474438  0.059170695450
 CT3X CG2R57  1  0.356359487256  0.093557084179
 CT3X CG25C1  1  0.355468588538  0.109105371453
 CT3X CG25C2  1  0.355468588538  0.109105371453
 CT3X CG251O  1  0.355468588538  0.109105371453
 CT3X CG252O  1  0.355468588538  0.109105371453
 CT3X CG2R61  1  0.346773417049  0.110698234855
 CT3X CG2R62  1  0.338541512893  0.125520000000
 CT3X CG2R63  1  0.338541512893  0.132309697301
 CT3X CG2R64  1  0.356359487256  0.083680000000
 CT3X CG2R66  1  0.338541512893  0.110698234855
 CT3X CG2R67  1  0.346773417049  0.110698234855
 CT3X CG2RC0  1  0.334977918021  0.131646486622
 CT3X CG2R71  1  0.346987232741  0.108300154755
 CT3X CG2RC7  1  0.334977918021  0.131646486622
 CT3X CG301  1  0.338541512893  0.041840000000
 CT3X CG302  1  0.374177461619  0.059170695450
 CT3X CG311  1  0.338541512893  0.041840000000
 CT3X CG312  1  0.351904993665  0.085746484010
 CT3X CG314  1  0.338541512893  0.041840000000
 CT3X CG321  1  0.338541512893  0.041840000000
 CT3X CG322  1  0.338541512893  0.102486650838
 CT3X CG323  1  0.365268474438  0.138767581228
 CT3X CG324  1  0.338541512893  0.041840000000
 CT3X CG331  1  0.338541512893  0.041840000000
 CT3X CG334  1  0.338541512893  0.041840000000
 CT3X CG3C50  1  0.338541512893  0.041840000000
 CT3X CG3C51  1  0.338541512893  0.041840000000
 CT3X CG3C52  1  0.338541512893  0.041840000000
 CT3X CG3C53  1  0.338541512893  0.041840000000
 CT3X CG3C54  1  0.338541512893  0.041840000000
 CT3X CG3C31  1  0.338541512893  0.041840000000
 CT3X CG3C41  1  0.338541512893  0.041840000000
 CT3X CG3RC1  1  0.338541512893  0.041840000000
 CT3X CG3AM0  1  0.344777803920  0.110698234855
 CT3X CG3AM1  1  0.345668702638  0.116852760686
 CT3X CG3AM2  1  0.346559601357  0.118341390899
 CT3X NG1T1  1  0.328741626994  0.177512086349
 CT3X NG2D1  1  0.334087019303  0.187114168357
 CT3X NG2S0  1  0.334087019303  0.004184000000
 CT3X NG2S1  1  0.307360057758  0.187114168357
 CT3X NG2S2  1  0.334087019303  0.187114168357
 CT3X NG2S3  1  0.334087019303  0.187114168357
 CT3X NG2O1  1  0.334087019303  0.187114168357
 CT3X NG2P1  1  0.334087019303  0.187114168357
 CT3X NG2R43  1  0.334087019303  0.187114168357
 CT3X NG2R50  1  0.334087019303  0.187114168357
 CT3X NG2R51  1  0.334087019303  0.187114168357
 CT3X NG2R52  1  0.334087019303  0.187114168357
 CT3X NG2R53  1  0.334087019303  0.187114168357
 CT3X NG2R57  1  0.334087019303  0.187114168357
 CT3X NG2R60  1  0.337650614175  0.102486650838
 CT3X NG2R61  1  0.334087019303  0.187114168357
 CT3X NG2R62  1  0.352795892384  0.093557084179
 CT3X NG2R67  1  0.334087019303  0.187114168357
 CT3X NG2RC0  1  0.334087019303  0.187114168357
 CT3X NG301  1  0.347450500075  0.078275472531
 CT3X NG311  1  0.347450500075  0.088756043175
 CT3X NG321  1  0.346559601357  0.102486650838
 CT3X NG331  1  0.345668702638  0.110698234855
 CT3X NG3C51  1  0.334087019303  0.187114168357
 CT3X NG3N1  1  0.351904993665  0.102486650838
 CT3X NG3P0  1  0.334087019303  0.187114168357
 CT3X NG3P1  1  0.334087019303  0.187114168357
 CT3X NG3P2  1  0.334087019303  0.187114168357
 CT3X NG3P3  1  0.334087019303  0.187114168357
 CT3X OG2D1  1  0.293996576986  0.144938011577
 CT3X OG2D2  1  0.320723538531  0.144938011577
 CT3X OG2D3  1  0.293996576986  0.144938011577
 CT3X OG2D4  1  0.320723538531  0.144938011577
 CT3X OG2D5  1  0.320010819556  0.169954883425
 CT3X OG2N1  1  0.320723538531  0.144938011577
 CT3X OG2P1  1  0.320723538531  0.144938011577
 CT3X OG2R50  1  0.320723538531  0.144938011577
 CT3X OG3R60  1  0.316269044940  0.132309697301
 CT3X OG301  1  0.316269044940  0.132309697301
 CT3X OG302  1  0.316269044940  0.132309697301
 CT3X OG303  1  0.316269044940  0.132309697301
 CT3X OG304  1  0.316269044940  0.132309697301
 CT3X OG311  1  0.326514380198  0.183381431383
 CT3X OG312  1  0.325178032121  0.144938011577
 CT3X OG3C31  1  0.316269044940  0.132309697301
 CT3X OG3C51  1  0.316269044940  0.132309697301
 CT3X OG3C61  1  0.316269044940  0.132309697301
 CT3X OGTIP3  1  0.326799467788  0.163176000000
 CT3X SG2D1  1  0.351904993665  0.314496560236
 CT3X SG2R50  1  0.347450500075  0.280671252536
 CT3X SG311  1  0.347450500075  0.280671252536
 CT3X SG301  1  0.345223253279  0.257919081884
 CT3X SG302  1  0.365268474438  0.286840588481
 CT3X SG3O1  1  0.356359487256  0.286840588481
 CT3X SG3O2  1  0.347450500075  0.247528778125
 CT3X SG3O3  1  0.347450500075  0.247528778125
 CT3X  FGA1  1  0.314487247504  0.153729976257
 CT3X  FGA2  1  0.314487247504  0.135577095411
 CT3X  FGA3  1  0.311814551349  0.130309939452
 CT3X  FGP1  1  0.311814551349  0.130309939452
 CT3X  FGR1  1  0.320723538531  0.144938011577
 CT3X CLGA1  1  0.339432411611  0.245040988571
 CT3X CLGA3  1  0.339432411611  0.232955260941
 CT3X BRGA1  1  0.344777803920  0.289876023155
 CT3X BRGA2  1  0.351904993665  0.304599797767
 CT3X BRGA3  1  0.347450500075  0.307459952514
 CT3X   SOD  1  0.294954293108  0.090610410351
 CT3X   CLA  1  0.371504765465  0.162045623205
 CT3X   PG0  1  0.360813980847  0.320014464673
 CT3X   PG1  1  0.360813980847  0.320014464673
 CT3X   PG2  1  0.360813980847  0.320014464673
 CT3X  ALG1  1  0.347450500075  0.337324864189
 CT3X   LPH  1  0.169270756447  0.000000000000
 CT3X CLGR1  1  0.334977918021  0.200657590935
 CT3X BRGR1  1  0.345668702638  0.236682781799
 CT3X  IGR1  1  0.368832069310  0.301712530731
 CT3X SG2P1  1  0.355798221064  0.332305491450
 CT3X OG2S1  1  0.318906105146  0.157831660601
 CT3X SG2P2  1  0.352314807076  0.329421919951
 CT3X SEGD1  1  0.363041227642  0.330244580395
 CT3X BG201  1  0.396449929572  0.081561175077
 CT3X CC301  1  0.338541512893  0.041840000000
 CT3X CC3062  1  0.338541512893  0.041840000000
 CT3X CC311  1  0.338541512893  0.041840000000
 CT3X CC3161  1  0.338541512893  0.041840000000
 CT3X CC3162  1  0.338541512893  0.041840000000
 CT3X CC3163  1  0.338541512893  0.041840000000
 CT3X CC321  1  0.338541512893  0.041840000000
 CT3X CC3261  1  0.338541512893  0.041840000000
 CT3X CC3263  1  0.338541512893  0.041840000000
 CT3X CC331  1  0.338541512893  0.041840000000
 CT3X CC2O1  1  0.347450500075  0.138767581228
 CT3X CC2O2  1  0.347450500075  0.110698234855
 CT3X CC2O3  1  0.347450500075  0.125520000000
 CT3X CC2O4  1  0.329632525712  0.102486650838
 CT3X CC2O5  1  0.320723538531  0.130979917850
 CT3X OC2D1  1  0.293996576986  0.144938011577
 CT3X OC2D2  1  0.320723538531  0.144938011577
 CT3X OC2D3  1  0.293996576986  0.144938011577
 CT3X OC2D4  1  0.293996576986  0.144938011577
 CT3X OC3C61  1  0.316269044940  0.132309697301
 CT3X OC311  1  0.326514380198  0.183381431383
 CT3X NC2D1  1  0.307360057758  0.187114168357
 CT3X  HCP1  1  0.189271432669  0.089736802707
 CT3X  HCA1  1  0.288651184677  0.088756043175
 CT3X  HCA2  1  0.288651184677  0.078275472531
 CT3X  HCA3  1  0.288651184677  0.064818249282
 CT3X CC312  1  0.338541512893  0.041840000000
 CT3X CC322  1  0.338541512893  0.041840000000
 CT3X  HCR1  1  0.240542653898  0.089736802707
 CT3X HCA3M  1  0.288651184677  0.064818249282
 CT3X CC321C  1  0.338541512893  0.041840000000
 CT3X CC321D  1  0.338541512893  0.041840000000
 CT3X CC311C  1  0.338541512893  0.041840000000
 CT3X CC311D  1  0.338541512893  0.041840000000
 CT3X OC301  1  0.316269044940  0.132309697301
 CT3X OC302  1  0.316269044940  0.132309697301
 CT3X HCP1M  1  0.189271432669  0.089736802707
 CT3X OC311M  1  0.326514380198  0.183381431383
 CT3X OC3C5M  1  0.316269044940  0.132309697301
 CT3X CC322C  1  0.338541512893  0.041840000000
 CT3X HCA2C2  1  0.285087589805  0.078275472531
 CT3X CC312C  1  0.338541512893  0.041840000000
 CT3X HCA1C2  1  0.288651184677  0.088756043175
 CT3X OC3C51  1  0.316269044940  0.132309697301
 CT3X CC3152  1  0.338541512893  0.041840000000
 CT3X CC3051  1  0.338541512893  0.041840000000
 CT3X CC3251  1  0.338541512893  0.041840000000
 CT3X CC3151  1  0.338541512893  0.041840000000
 CT3X CC3153  1  0.338541512893  0.041840000000
 CT3X OC2DP  1  0.320723538531  0.144938011577
 CT3X OC312  1  0.326959829558  0.163176000000
 CT3X OC30P  1  0.326959829558  0.163176000000
 CT3X    PC  1  0.360813980847  0.320014464673
 CT3X    SC  1  0.356359487256  0.286840588481
 CT3X CC312D  1  0.338541512893  0.041840000000
 CT3X OC303  1  0.316269044940  0.132309697301
 CT3X NC311  1  0.347450500075  0.088756043175
 CT3X   HN1  1  0.189271432669  0.089736802707
 CT3X   HN2  1  0.189271432669  0.089736802707
 CT3X   HN3  1  0.267269615442  0.089736802707
 CT3X   HN4  1  0.189271432669  0.089736802707
 CT3X   HN5  1  0.189271432669  0.089736802707
 CT3X   HN6  1  0.286869387241  0.062058748940
 CT3X   HN7  1  0.286869387241  0.062058748940
 CT3X   HN8  1  0.288651184677  0.070011711020
 CT3X   HN9  1  0.288651184677  0.064818249282
 CT3X   NN1  1  0.334087019303  0.187114168357
 CT3X   NN2  1  0.334087019303  0.187114168357
 CT3X  NN2B  1  0.334087019303  0.187114168357
 CT3X  NN2G  1  0.334087019303  0.187114168357
 CT3X  NN2U  1  0.334087019303  0.187114168357
 CT3X   NN3  1  0.334087019303  0.187114168357
 CT3X  NN3A  1  0.334087019303  0.187114168357
 CT3X  NN3G  1  0.334087019303  0.187114168357
 CT3X   NN4  1  0.334087019303  0.187114168357
 CT3X   NN6  1  0.334087019303  0.187114168357
 CT3X   ON1  1  0.320723538531  0.144938011577
 CT3X  ON1C  1  0.320723538531  0.144938011577
 CT3X   ON2  1  0.326959829558  0.163176000000
 CT3X   ON3  1  0.320723538531  0.144938011577
 CT3X   ON4  1  0.326959829558  0.163176000000
 CT3X   ON5  1  0.326959829558  0.163176000000
 CT3X   ON6  1  0.326959829558  0.163176000000
 CT3X  ON6B  1  0.326959829558  0.163176000000
 CT3X   CN1  1  0.338541512893  0.132309697301
 CT3X  CN1T  1  0.338541512893  0.132309697301
 CT3X   CN2  1  0.338541512893  0.132309697301
 CT3X   CN3  1  0.338541512893  0.125520000000
 CT3X  CN3T  1  0.338541512893  0.125520000000
 CT3X   CN4  1  0.338541512893  0.114583559030
 CT3X   CN5  1  0.338541512893  0.114583559030
 CT3X  CN5G  1  0.338541512893  0.114583559030
 CT3X   CN7  1  0.338541512893  0.041840000000
 CT3X  CN7B  1  0.338541512893  0.041840000000
 CT3X   CN8  1  0.338541512893  0.041840000000
 CT3X  CN8B  1  0.338541512893  0.041840000000
 CT3X   CN9  1  0.338541512893  0.041840000000
 CT3X     P  1  0.360813980847  0.320014464673
 CT3X    P2  1  0.360813980847  0.320014464673
 CT3X    P3  1  0.360813980847  0.320014464673
 CT3X    P4  1  0.360813980847  0.320014464673
 CT3X   HOL  1  0.189271432669  0.089736802707
 CT3X  HAL1  1  0.286869387241  0.062058748940
 CT3X  HAL2  1  0.288651184677  0.070011711020
 CT3X  HAL3  1  0.288651184677  0.064818249282
 CT3X   HBL  1  0.286869387241  0.062058748940
 CT3X   HCL  1  0.189271432669  0.089736802707
 CT3X    HL  1  0.231633666716  0.089736802707
 CT3X  HEL1  1  0.280633096214  0.073666921749
 CT3X  HEL2  1  0.281523994932  0.067464972838
 CT3X    CL  1  0.347450500075  0.110698234855
 CT3X   CCL  1  0.347450500075  0.110698234855
 CT3X  CTL1  1  0.338541512893  0.041840000000
 CT3X  CTL2  1  0.338541512893  0.041840000000
 CT3X  CTL3  1  0.338541512893  0.041840000000
 CT3X  CTL5  1  0.338541512893  0.041840000000
 CT3X  CEL1  1  0.355468588538  0.109105371453
 CT3X  CEL2  1  0.354577689820  0.105847757841
 CT3X  CRL1  1  0.338541512893  0.041840000000
 CT3X  CRL2  1  0.338541512893  0.041840000000
 CT3X   OBL  1  0.293996576986  0.144938011577
 CT3X   OCL  1  0.320723538531  0.144938011577
 CT3X   O2L  1  0.320723538531  0.144938011577
 CT3X   OHL  1  0.326959829558  0.163176000000
 CT3X   OSL  1  0.316269044940  0.132309697301
 CT3X  OSLP  1  0.316269044940  0.132309697301
 CT3X  NH3L  1  0.334087019303  0.187114168357
 CT3X   NTL  1  0.334087019303  0.187114168357
 CT3X    SL  1  0.356359487256  0.286840588481
 CT3X    PL  1  0.360813980847  0.320014464673
 CT3X HCA1A  1  0.288651184677  0.088756043175
 CT3X HCA2A  1  0.288651184677  0.078275472531
 CT3X HCA3A  1  0.288651184677  0.064818249282
 CT3X CC30A  1  0.338541512893  0.041840000000
 CT3X CC31A  1  0.338541512893  0.041840000000
 CT3X CC32A  1  0.338541512893  0.041840000000
 CT3X CC33A  1  0.338541512893  0.041840000000
 CT3X CC326A  1  0.338541512893  0.041840000000
 CT3X HCA25A  1  0.285087589805  0.078275472531
 CT3X CC325A  1  0.338541512893  0.041840000000
 CT3X CC325B  1  0.338541512893  0.041840000000
 CT3X OC305A  1  0.316269044940  0.132309697301
 CT3X OC30A  1  0.316269044940  0.132309697301
 CT3X  HSIO  1  0.189271432669  0.089736802707
 CT3X  HSIA  1  0.286869387241  0.062058748940
 CT3X   HAL  1  0.286869387241  0.062058748940
 CT3X    AL  1  0.365268474438  0.337324864189
 CT3X    SI  1  0.365268474438  0.324091246411
 CT3X  SIH3  1  0.365268474438  0.324091246411
 CT3X  OSIH  1  0.326959829558  0.163176000000
 CT3X  OSIE  1  0.326959829558  0.163176000000
 CT3X  OSIA  1  0.326959829558  0.163176000000
 CT3X   OAL  1  0.326959829558  0.163176000000
 CT3X    HT  1  0.189271432669  0.089736802707
 CT3X    OT  1  0.326799467788  0.163176000000
 CT3X   DUM  1  0.169270756447  0.000000000000
 CT3X    CM  1  0.356359487256  0.138767581228
 CT3X   CPA  1  0.329632525712  0.125520000000
 CT3X   CPB  1  0.329632525712  0.125520000000
 CT3X   CPM  1  0.329632525712  0.125520000000
 CT3X   CST  1  0.308518226092  0.100764063435
 CT3X  CT1X  1  0.338541512893  0.041840000000
 CT3X  CT2X  1  0.338541512893  0.041840000000
 CT3X  CT3X  1  0.338541512893  0.041840000000
 CT3X    HB  1  0.286869387241  0.062058748940
 CT3X   NPH  1  0.334087019303  0.187114168357
 CT3X    OM  1  0.320723538531  0.144938011577
 CT3X   OST  1  0.320010819556  0.169954883425
 CT3X   POT  1  0.326403017859  0.123410269913
 CT3X   CAL  1  0.291056611216  0.144938011577
 CT3X    MG  1  0.274842254546  0.051243325419
 CT3X   CES  1  0.356359487256  0.182376331798
 CT3X    ZN  1  0.266378716724  0.209200000000
 CT3X    FE  1  0.227179173126  0.000000000000
 CT3X    HE  1  0.301123766731  0.061020452073
 CT3X    NE  1  0.305578260322  0.122698965603
 CT3X  CLAL  1  0.339272049842  0.072469005789
 CT3X    AG  1  0.300901042052  0.893457908130
 CT3X    AU  1  0.300722862308  0.962320000000
 CT3X    CU  1  0.285800308779  0.908997471504
 CT3X    NI  1  0.282949432881  0.994525446633
 CT3X    PB  1  0.328073452955  0.716185437439
 CT3X    PD  1  0.294842930769  1.037598257516
 CT3X    PT  1  0.296001099102  1.168527606863
 CT3X   CAP  1  0.346773417049  0.110698234855
 CT3X    FA  1  0.320723538531  0.144938011577
 CT3X    CN  1  0.325178032121  0.187114168357
 CT3X    NC  1  0.334087019303  0.324091246411
 CT3X   OCA  1  0.293996576986  0.144938011577
 CT3X   COA  1  0.347450500075  0.138767581228
 CT3X   CF1  1  0.338541512893  0.102486650838
 CT3X   CF2  1  0.351904993665  0.085746484010
 CT3X   CF3  1  0.374177461619  0.059170695450
 CT3X   HF1  1  0.286869387241  0.070011711020
 CT3X   HF2  1  0.285087589805  0.072469005789
 CT3X    F1  1  0.314487247504  0.153729976257
 CT3X    F2  1  0.314487247504  0.135577095411
 CT3X    F3  1  0.311814551349  0.130309939452
 CT3X    OX  1  0.320723538531  0.144938011577
 CT3X    HX  1  0.189271432669  0.089736802707
 CT3X  HPER  1  0.189271432669  0.089736802707
 CT3X  OPER  1  0.318427692534  0.188901923946
 CT3X   LIT  1  0.284864865125  0.020196198771
 CT3X   RUB  1  0.338541512893  0.162045623205
 CT3X   BAR  1  0.337650614175  0.162045623205
 CT3X   CAD  1  0.290165712498  0.144938011577
 CT3X  ON2B  1  0.326959829558  0.163176000000
 CT3X    SP  1  0.365268474438  0.280671252536
 CT3X   HNP  1  0.290272620344  0.072469005789
 CT3X  HNE1  1  0.280633096214  0.073666921749
 CT3X  HNE2  1  0.281523994932  0.067464972838
 CT3X  CN3D  1  0.338541512893  0.125520000000
 CT3X  CNE1  1  0.355468588538  0.109105371453
 CT3X  CNE2  1  0.354577689820  0.105847757841
 CT3X   CNA  1  0.346773417049  0.110698234855
 CT3X  CNA2  1  0.338541512893  0.110698234855
 CT3X   CNG  1  0.347450500075  0.138767581228
 CT3X  NN1C  1  0.334087019303  0.187114168357
 CT3X  NN2C  1  0.334087019303  0.187114168357
 CT3X  NN3I  1  0.334087019303  0.187114168357
 CT3X   NNG  1  0.334087019303  0.187114168357
 CT3X   FNA  1  0.320723538531  0.144938011577
 CT3X  ON2M  1  0.316269044940  0.132309697301
 CT3X   CN6  1  0.338541512893  0.041840000000
 CT3X  CN7E  1  0.338541512893  0.041840000000
 CT3X  CT2P  1  0.338541512893  0.041840000000
 CT3X  CTD1  1  0.338541512893  0.041840000000
 CT3X  CPD1  1  0.338541512893  0.041840000000
 CT3X  CC1A  1  0.355468588538  0.109105371453
 CT3X  CC1B  1  0.355468588538  0.109105371453
 CT3X   CC2  1  0.354577689820  0.105847757841
 CT3X   NS1  1  0.334087019303  0.187114168357
 CT3X   NS2  1  0.334087019303  0.187114168357
 CT3X   NHL  1  0.307360057758  0.187114168357
 CT3X  CTO1  1  0.338541512893  0.041840000000
 CT3X  CEL3  1  0.355468588538  0.109105371453
 CT3X  CTO2  1  0.338541512893  0.041840000000
 CT3X  HN3B  1  0.249451641079  0.089736802707
 CT3X  CN1A  1  0.347450500075  0.110698234855
 CT3X  CN3A  1  0.329632525712  0.177512086349
 CT3X  CN3B  1  0.329632525712  0.177512086349
 CT3X  CN3C  1  0.329632525712  0.177512086349
  OCA     C  1  0.302905564168  0.480705002262
  OCA    CA  1  0.302228481142  0.383469934154
  OCA    CC  1  0.302905564168  0.383469934154
  OCA    CD  1  0.302905564168  0.383469934154
  OCA   CE1  1  0.310923652631  0.377952093472
  OCA   CE2  1  0.310032753913  0.366667388896
  OCA   CP1  1  0.293996576986  0.144938011577
  OCA   CP2  1  0.293996576986  0.144938011577
  OCA   CP3  1  0.293996576986  0.144938011577
  OCA  CPH1  1  0.285087589805  0.324091246411
  OCA  CPH2  1  0.285087589805  0.324091246411
  OCA    CS  1  0.320723538531  0.480705002262
  OCA   CPT  1  0.290432982114  0.456036806936
  OCA    CY  1  0.302014665450  0.391600943002
  OCA   CAI  1  0.302014665450  0.391600943002
  OCA    CT  1  0.293996576986  0.144938011577
  OCA   CT1  1  0.293996576986  0.144938011577
  OCA   CT2  1  0.293996576986  0.144938011577
  OCA  CT2A  1  0.293996576986  0.144938011577
  OCA   CT3  1  0.293996576986  0.144938011577
  OCA    C3  1  0.327405278917  0.204973301676
  OCA     H  1  0.144726496762  0.310857403193
  OCA    HA  1  0.242324451334  0.214977812437
  OCA   HB1  1  0.242324451334  0.214977812437
  OCA   HB2  1  0.244106248770  0.242527681224
  OCA   HE1  1  0.236088160307  0.255189702614
  OCA   HE2  1  0.236979059025  0.233705521373
  OCA    HC  1  0.144726496762  0.310857403193
  OCA    HP  1  0.245727684437  0.251040000000
  OCA   HR1  1  0.204906705172  0.310857403193
  OCA   HR2  1  0.187088730809  0.310857403193
  OCA   HR3  1  0.255509752363  0.128005785869
  OCA    HS  1  0.164816262856  0.458334236120
  OCA   HA1  1  0.244106248770  0.307459952514
  OCA   HA2  1  0.244106248770  0.267252488258
  OCA   HA3  1  0.244106248770  0.224537002029
  OCA     N  1  0.289542083396  0.014493801158
  OCA   NC2  1  0.289542083396  0.648182492821
  OCA   NH1  1  0.262815121851  0.648182492821
  OCA   NH2  1  0.289542083396  0.648182492821
  OCA   NH3  1  0.289542083396  0.648182492821
  OCA    NP  1  0.289542083396  0.648182492821
  OCA   NR1  1  0.289542083396  0.648182492821
  OCA   NR2  1  0.289542083396  0.648182492821
  OCA   NR3  1  0.289542083396  0.648182492821
  OCA    NY  1  0.289542083396  0.648182492821
  OCA     O  1  0.249451641079  0.502080000000
  OCA    OB  1  0.249451641079  0.502080000000
  OCA    OC  1  0.276178602624  0.502080000000
  OCA   OH1  1  0.282414893650  0.565258245152
  OCA    OS  1  0.282414893650  0.565258245152
  OCA     S  1  0.302905564168  0.972273739232
  OCA    SM  1  0.300678317372  0.893457908130
  OCA    SS  1  0.320723538531  0.993644945843
  OCA  HGA1  1  0.244106248770  0.307459952514
  OCA  HGA2  1  0.244106248770  0.271154190821
  OCA  HGA3  1  0.244106248770  0.224537002029
  OCA  HGA4  1  0.236088160307  0.255189702614
  OCA  HGA5  1  0.236979059025  0.233705521373
  OCA  HGA6  1  0.242324451334  0.242527681224
  OCA  HGA7  1  0.240542653898  0.251040000000
  OCA HGAAM0  1  0.238760856462  0.242527681224
  OCA HGAAM1  1  0.238760856462  0.242527681224
  OCA HGAAM2  1  0.236979059025  0.289876023155
  OCA  HGP1  1  0.144726496762  0.310857403193
  OCA  HGP2  1  0.144726496762  0.310857403193
  OCA  HGP3  1  0.164816262856  0.458334236120
  OCA  HGP4  1  0.144726496762  0.310857403193
  OCA  HGP5  1  0.187088730809  0.310857403193
  OCA HGPAM1  1  0.202679458377  0.137500270836
  OCA HGPAM2  1  0.202679458377  0.144938011577
  OCA HGPAM3  1  0.202234009018  0.158771636762
  OCA HGR51  1  0.245727684437  0.251040000000
  OCA HGR52  1  0.204906705172  0.310857403193
  OCA HGR53  1  0.187088730809  0.310857403193
  OCA HGR61  1  0.245727684437  0.251040000000
  OCA HGR62  1  0.222724679535  0.310857403193
  OCA HGR63  1  0.204906705172  0.310857403193
  OCA HGR71  1  0.245727684437  0.251040000000
  OCA HGTIP3  1  0.144726496762  0.310857403193
  OCA CG1T1  1  0.288651184677  0.592298365893
  OCA CG1T2  1  0.302237390129  0.465609837422
  OCA CG1N1  1  0.291323880832  0.614919905028
  OCA CG2D1  1  0.310923652631  0.377952093472
  OCA CG2D2  1  0.310032753913  0.366667388896
  OCA CG2D1O  1  0.310923652631  0.377952093472
  OCA CG2D2O  1  0.310923652631  0.377952093472
  OCA CG2DC1  1  0.310923652631  0.377952093472
  OCA CG2DC2  1  0.310923652631  0.377952093472
  OCA CG2DC3  1  0.310032753913  0.366667388896
  OCA CG2N1  1  0.302905564168  0.480705002262
  OCA CG2N2  1  0.302905564168  0.480705002262
  OCA CG2O1  1  0.302905564168  0.480705002262
  OCA CG2O2  1  0.276178602624  0.453727744975
  OCA CG2O3  1  0.302905564168  0.383469934154
  OCA CG2O4  1  0.285087589805  0.355024172698
  OCA CG2O5  1  0.302905564168  0.434814034732
  OCA CG2O6  1  0.302905564168  0.383469934154
  OCA CG2O7  1  0.263973290185  0.349056954894
  OCA CG2R51  1  0.311814551349  0.324091246411
  OCA CG2R52  1  0.320723538531  0.204973301676
  OCA CG2R53  1  0.320723538531  0.204973301676
  OCA CG2R57  1  0.311814551349  0.324091246411
  OCA CG25C1  1  0.310923652631  0.377952093472
  OCA CG25C2  1  0.310923652631  0.377952093472
  OCA CG251O  1  0.310923652631  0.377952093472
  OCA CG252O  1  0.310923652631  0.377952093472
  OCA CG2R61  1  0.302228481142  0.383469934154
  OCA CG2R62  1  0.293996576986  0.434814034732
  OCA CG2R63  1  0.293996576986  0.458334236120
  OCA CG2R64  1  0.311814551349  0.289876023155
  OCA CG2R66  1  0.293996576986  0.383469934154
  OCA CG2R67  1  0.302228481142  0.383469934154
  OCA CG2RC0  1  0.290432982114  0.456036806936
  OCA CG2R71  1  0.302442296834  0.375162741007
  OCA CG2RC7  1  0.290432982114  0.456036806936
  OCA CG301  1  0.293996576986  0.144938011577
  OCA CG302  1  0.329632525712  0.204973301676
  OCA CG311  1  0.293996576986  0.144938011577
  OCA CG312  1  0.307360057758  0.297034533750
  OCA CG314  1  0.293996576986  0.144938011577
  OCA CG321  1  0.293996576986  0.144938011577
  OCA CG322  1  0.293996576986  0.355024172698
  OCA CG323  1  0.320723538531  0.480705002262
  OCA CG324  1  0.293996576986  0.144938011577
  OCA CG331  1  0.293996576986  0.144938011577
  OCA CG334  1  0.293996576986  0.144938011577
  OCA CG3C50  1  0.293996576986  0.144938011577
  OCA CG3C51  1  0.293996576986  0.144938011577
  OCA CG3C52  1  0.293996576986  0.144938011577
  OCA CG3C53  1  0.293996576986  0.144938011577
  OCA CG3C54  1  0.293996576986  0.144938011577
  OCA CG3C31  1  0.293996576986  0.144938011577
  OCA CG3C41  1  0.293996576986  0.144938011577
  OCA CG3RC1  1  0.293996576986  0.144938011577
  OCA CG3AM0  1  0.300232868013  0.383469934154
  OCA CG3AM1  1  0.301123766731  0.404789837027
  OCA CG3AM2  1  0.302014665450  0.409946603352
  OCA NG1T1  1  0.284196691087  0.614919905028
  OCA NG2D1  1  0.289542083396  0.648182492821
  OCA NG2S0  1  0.289542083396  0.014493801158
  OCA NG2S1  1  0.262815121851  0.648182492821
  OCA NG2S2  1  0.289542083396  0.648182492821
  OCA NG2S3  1  0.289542083396  0.648182492821
  OCA NG2O1  1  0.289542083396  0.648182492821
  OCA NG2P1  1  0.289542083396  0.648182492821
  OCA NG2R43  1  0.289542083396  0.648182492821
  OCA NG2R50  1  0.289542083396  0.648182492821
  OCA NG2R51  1  0.289542083396  0.648182492821
  OCA NG2R52  1  0.289542083396  0.648182492821
  OCA NG2R53  1  0.289542083396  0.648182492821
  OCA NG2R57  1  0.289542083396  0.648182492821
  OCA NG2R60  1  0.293105678268  0.355024172698
  OCA NG2R61  1  0.289542083396  0.648182492821
  OCA NG2R62  1  0.308250956477  0.324091246411
  OCA NG2R67  1  0.289542083396  0.648182492821
  OCA NG2RC0  1  0.289542083396  0.648182492821
  OCA NG301  1  0.302905564168  0.271154190821
  OCA NG311  1  0.302905564168  0.307459952514
  OCA NG321  1  0.302014665450  0.355024172698
  OCA NG331  1  0.301123766731  0.383469934154
  OCA NG3C51  1  0.289542083396  0.648182492821
  OCA NG3N1  1  0.307360057758  0.355024172698
  OCA NG3P0  1  0.289542083396  0.648182492821
  OCA NG3P1  1  0.289542083396  0.648182492821
  OCA NG3P2  1  0.289542083396  0.648182492821
  OCA NG3P3  1  0.289542083396  0.648182492821
  OCA OG2D1  1  0.249451641079  0.502080000000
  OCA OG2D2  1  0.276178602624  0.502080000000
  OCA OG2D3  1  0.249451641079  0.502080000000
  OCA OG2D4  1  0.276178602624  0.502080000000
  OCA OG2D5  1  0.275465883649  0.588740986173
  OCA OG2N1  1  0.276178602624  0.502080000000
  OCA OG2P1  1  0.276178602624  0.502080000000
  OCA OG2R50  1  0.276178602624  0.502080000000
  OCA OG3R60  1  0.271724109033  0.458334236120
  OCA OG301  1  0.271724109033  0.458334236120
  OCA OG302  1  0.271724109033  0.458334236120
  OCA OG303  1  0.271724109033  0.458334236120
  OCA OG304  1  0.271724109033  0.458334236120
  OCA OG311  1  0.281969444291  0.635251912639
  OCA OG312  1  0.280633096214  0.502080000000
  OCA OG3C31  1  0.271724109033  0.458334236120
  OCA OG3C51  1  0.271724109033  0.458334236120
  OCA OG3C61  1  0.271724109033  0.458334236120
  OCA OGTIP3  1  0.282254531881  0.565258245152
  OCA SG2D1  1  0.307360057758  1.089448042267
  OCA SG2R50  1  0.302905564168  0.972273739232
  OCA SG311  1  0.302905564168  0.972273739232
  OCA SG301  1  0.300678317372  0.893457908130
  OCA SG302  1  0.320723538531  0.993644945843
  OCA SG3O1  1  0.311814551349  0.993644945843
  OCA SG3O2  1  0.302905564168  0.857464840095
  OCA SG3O3  1  0.302905564168  0.857464840095
  OCA  FGA1  1  0.269942311597  0.532536259047
  OCA  FGA2  1  0.269942311597  0.469652835188
  OCA  FGA3  1  0.267269615442  0.451406871724
  OCA  FGP1  1  0.267269615442  0.451406871724
  OCA  FGR1  1  0.276178602624  0.502080000000
  OCA CLGA1  1  0.294887475704  0.848846884285
  OCA CLGA3  1  0.294887475704  0.806980695680
  OCA BRGA1  1  0.300232868013  1.004160000000
  OCA BRGA2  1  0.307360057758  1.055164651417
  OCA BRGA3  1  0.302905564168  1.065072518094
  OCA   SOD  1  0.250409357201  0.313883668846
  OCA   CLA  1  0.326959829558  0.561342505072
  OCA   PG0  1  0.316269044940  1.108562623941
  OCA   PG1  1  0.316269044940  1.108562623941
  OCA   PG2  1  0.316269044940  1.108562623941
  OCA  ALG1  1  0.302905564168  1.168527606863
  OCA   LPH  1  0.124725820540  0.000000000000
  OCA CLGR1  1  0.290432982114  0.695098284849
  OCA BRGR1  1  0.301123766731  0.819893206704
  OCA  IGR1  1  0.324287133403  1.045162865012
  OCA SG2P1  1  0.311253285157  1.151139989652
  OCA OG2S1  1  0.274361169238  0.546744910407
  OCA SG2P2  1  0.307769871169  1.141151004963
  OCA SEGD1  1  0.318496291735  1.144000784335
  OCA BG201  1  0.351904993665  0.282536198318
  OCA CC301  1  0.293996576986  0.144938011577
  OCA CC3062  1  0.293996576986  0.144938011577
  OCA CC311  1  0.293996576986  0.144938011577
  OCA CC3161  1  0.293996576986  0.144938011577
  OCA CC3162  1  0.293996576986  0.144938011577
  OCA CC3163  1  0.293996576986  0.144938011577
  OCA CC321  1  0.293996576986  0.144938011577
  OCA CC3261  1  0.293996576986  0.144938011577
  OCA CC3263  1  0.293996576986  0.144938011577
  OCA CC331  1  0.293996576986  0.144938011577
  OCA CC2O1  1  0.302905564168  0.480705002262
  OCA CC2O2  1  0.302905564168  0.383469934154
  OCA CC2O3  1  0.302905564168  0.434814034732
  OCA CC2O4  1  0.285087589805  0.355024172698
  OCA CC2O5  1  0.276178602624  0.453727744975
  OCA OC2D1  1  0.249451641079  0.502080000000
  OCA OC2D2  1  0.276178602624  0.502080000000
  OCA OC2D3  1  0.249451641079  0.502080000000
  OCA OC2D4  1  0.249451641079  0.502080000000
  OCA OC3C61  1  0.271724109033  0.458334236120
  OCA OC311  1  0.281969444291  0.635251912639
  OCA NC2D1  1  0.262815121851  0.648182492821
  OCA  HCP1  1  0.144726496762  0.310857403193
  OCA  HCA1  1  0.244106248770  0.307459952514
  OCA  HCA2  1  0.244106248770  0.271154190821
  OCA  HCA3  1  0.244106248770  0.224537002029
  OCA CC312  1  0.293996576986  0.144938011577
  OCA CC322  1  0.293996576986  0.144938011577
  OCA  HCR1  1  0.195997717991  0.310857403193
  OCA HCA3M  1  0.244106248770  0.224537002029
  OCA CC321C  1  0.293996576986  0.144938011577
  OCA CC321D  1  0.293996576986  0.144938011577
  OCA CC311C  1  0.293996576986  0.144938011577
  OCA CC311D  1  0.293996576986  0.144938011577
  OCA OC301  1  0.271724109033  0.458334236120
  OCA OC302  1  0.271724109033  0.458334236120
  OCA HCP1M  1  0.144726496762  0.310857403193
  OCA OC311M  1  0.281969444291  0.635251912639
  OCA OC3C5M  1  0.271724109033  0.458334236120
  OCA CC322C  1  0.293996576986  0.144938011577
  OCA HCA2C2  1  0.240542653898  0.271154190821
  OCA CC312C  1  0.293996576986  0.144938011577
  OCA HCA1C2  1  0.244106248770  0.307459952514
  OCA OC3C51  1  0.271724109033  0.458334236120
  OCA CC3152  1  0.293996576986  0.144938011577
  OCA CC3051  1  0.293996576986  0.144938011577
  OCA CC3251  1  0.293996576986  0.144938011577
  OCA CC3151  1  0.293996576986  0.144938011577
  OCA CC3153  1  0.293996576986  0.144938011577
  OCA OC2DP  1  0.276178602624  0.502080000000
  OCA OC312  1  0.282414893650  0.565258245152
  OCA OC30P  1  0.282414893650  0.565258245152
  OCA    PC  1  0.316269044940  1.108562623941
  OCA    SC  1  0.311814551349  0.993644945843
  OCA CC312D  1  0.293996576986  0.144938011577
  OCA OC303  1  0.271724109033  0.458334236120
  OCA NC311  1  0.302905564168  0.307459952514
  OCA   HN1  1  0.144726496762  0.310857403193
  OCA   HN2  1  0.144726496762  0.310857403193
  OCA   HN3  1  0.222724679535  0.310857403193
  OCA   HN4  1  0.144726496762  0.310857403193
  OCA   HN5  1  0.144726496762  0.310857403193
  OCA   HN6  1  0.242324451334  0.214977812437
  OCA   HN7  1  0.242324451334  0.214977812437
  OCA   HN8  1  0.244106248770  0.242527681224
  OCA   HN9  1  0.244106248770  0.224537002029
  OCA   NN1  1  0.289542083396  0.648182492821
  OCA   NN2  1  0.289542083396  0.648182492821
  OCA  NN2B  1  0.289542083396  0.648182492821
  OCA  NN2G  1  0.289542083396  0.648182492821
  OCA  NN2U  1  0.289542083396  0.648182492821
  OCA   NN3  1  0.289542083396  0.648182492821
  OCA  NN3A  1  0.289542083396  0.648182492821
  OCA  NN3G  1  0.289542083396  0.648182492821
  OCA   NN4  1  0.289542083396  0.648182492821
  OCA   NN6  1  0.289542083396  0.648182492821
  OCA   ON1  1  0.276178602624  0.502080000000
  OCA  ON1C  1  0.276178602624  0.502080000000
  OCA   ON2  1  0.282414893650  0.565258245152
  OCA   ON3  1  0.276178602624  0.502080000000
  OCA   ON4  1  0.282414893650  0.565258245152
  OCA   ON5  1  0.282414893650  0.565258245152
  OCA   ON6  1  0.282414893650  0.565258245152
  OCA  ON6B  1  0.282414893650  0.565258245152
  OCA   CN1  1  0.293996576986  0.458334236120
  OCA  CN1T  1  0.293996576986  0.458334236120
  OCA   CN2  1  0.293996576986  0.458334236120
  OCA   CN3  1  0.293996576986  0.434814034732
  OCA  CN3T  1  0.293996576986  0.434814034732
  OCA   CN4  1  0.293996576986  0.396929091904
  OCA   CN5  1  0.293996576986  0.396929091904
  OCA  CN5G  1  0.293996576986  0.396929091904
  OCA   CN7  1  0.293996576986  0.144938011577
  OCA  CN7B  1  0.293996576986  0.144938011577
  OCA   CN8  1  0.293996576986  0.144938011577
  OCA  CN8B  1  0.293996576986  0.144938011577
  OCA   CN9  1  0.293996576986  0.144938011577
  OCA     P  1  0.316269044940  1.108562623941
  OCA    P2  1  0.316269044940  1.108562623941
  OCA    P3  1  0.316269044940  1.108562623941
  OCA    P4  1  0.316269044940  1.108562623941
  OCA   HOL  1  0.144726496762  0.310857403193
  OCA  HAL1  1  0.242324451334  0.214977812437
  OCA  HAL2  1  0.244106248770  0.242527681224
  OCA  HAL3  1  0.244106248770  0.224537002029
  OCA   HBL  1  0.242324451334  0.214977812437
  OCA   HCL  1  0.144726496762  0.310857403193
  OCA    HL  1  0.187088730809  0.310857403193
  OCA  HEL1  1  0.236088160307  0.255189702614
  OCA  HEL2  1  0.236979059025  0.233705521373
  OCA    CL  1  0.302905564168  0.383469934154
  OCA   CCL  1  0.302905564168  0.383469934154
  OCA  CTL1  1  0.293996576986  0.144938011577
  OCA  CTL2  1  0.293996576986  0.144938011577
  OCA  CTL3  1  0.293996576986  0.144938011577
  OCA  CTL5  1  0.293996576986  0.144938011577
  OCA  CEL1  1  0.310923652631  0.377952093472
  OCA  CEL2  1  0.310032753913  0.366667388896
  OCA  CRL1  1  0.293996576986  0.144938011577
  OCA  CRL2  1  0.293996576986  0.144938011577
  OCA   OBL  1  0.249451641079  0.502080000000
  OCA   OCL  1  0.276178602624  0.502080000000
  OCA   O2L  1  0.276178602624  0.502080000000
  OCA   OHL  1  0.282414893650  0.565258245152
  OCA   OSL  1  0.271724109033  0.458334236120
  OCA  OSLP  1  0.271724109033  0.458334236120
  OCA  NH3L  1  0.289542083396  0.648182492821
  OCA   NTL  1  0.289542083396  0.648182492821
  OCA    SL  1  0.311814551349  0.993644945843
  OCA    PL  1  0.316269044940  1.108562623941
  OCA HCA1A  1  0.244106248770  0.307459952514
  OCA HCA2A  1  0.244106248770  0.271154190821
  OCA HCA3A  1  0.244106248770  0.224537002029
  OCA CC30A  1  0.293996576986  0.144938011577
  OCA CC31A  1  0.293996576986  0.144938011577
  OCA CC32A  1  0.293996576986  0.144938011577
  OCA CC33A  1  0.293996576986  0.144938011577
  OCA CC326A  1  0.293996576986  0.144938011577
  OCA HCA25A  1  0.240542653898  0.271154190821
  OCA CC325A  1  0.293996576986  0.144938011577
  OCA CC325B  1  0.293996576986  0.144938011577
  OCA OC305A  1  0.271724109033  0.458334236120
  OCA OC30A  1  0.271724109033  0.458334236120
  OCA  HSIO  1  0.144726496762  0.310857403193
  OCA  HSIA  1  0.242324451334  0.214977812437
  OCA   HAL  1  0.242324451334  0.214977812437
  OCA    AL  1  0.320723538531  1.168527606863
  OCA    SI  1  0.320723538531  1.122685010143
  OCA  SIH3  1  0.320723538531  1.122685010143
  OCA  OSIH  1  0.282414893650  0.565258245152
  OCA  OSIE  1  0.282414893650  0.565258245152
  OCA  OSIA  1  0.282414893650  0.565258245152
  OCA   OAL  1  0.282414893650  0.565258245152
  OCA    HT  1  0.144726496762  0.310857403193
  OCA    OT  1  0.282254531881  0.565258245152
  OCA   DUM  1  0.124725820540  0.000000000000
  OCA    CM  1  0.311814551349  0.480705002262
  OCA   CPA  1  0.285087589805  0.434814034732
  OCA   CPB  1  0.285087589805  0.434814034732
  OCA   CPM  1  0.285087589805  0.434814034732
  OCA   CST  1  0.263973290185  0.349056954894
  OCA  CT1X  1  0.293996576986  0.144938011577
  OCA  CT2X  1  0.293996576986  0.144938011577
  OCA  CT3X  1  0.293996576986  0.144938011577
  OCA    HB  1  0.242324451334  0.214977812437
  OCA   NPH  1  0.289542083396  0.648182492821
  OCA    OM  1  0.276178602624  0.502080000000
  OCA   OST  1  0.275465883649  0.588740986173
  OCA   POT  1  0.281858081952  0.427505715330
  OCA   CAL  1  0.246511675309  0.502080000000
  OCA    MG  1  0.230297318639  0.177512086349
  OCA   CES  1  0.311814551349  0.631770145543
  OCA    ZN  1  0.221833780817  0.724690057887
  OCA    FE  1  0.182634237219  0.000000000000
  OCA    HE  1  0.256578830824  0.211381046583
  OCA    NE  1  0.261033324415  0.425041684920
  OCA  CLAL  1  0.294727113935  0.251040000000
  OCA    AG  1  0.256356106145  3.095028982611
  OCA    AU  1  0.256177926401  3.333574266279
  OCA    CU  1  0.241255372872  3.148859609192
  OCA    NI  1  0.238404496974  3.445137205976
  OCA    PB  1  0.283528517048  2.480939130571
  OCA    PD  1  0.250297994862  3.594345799725
  OCA    PT  1  0.251456163195  4.047898370266
  OCA   CAP  1  0.302228481142  0.383469934154
  OCA    FA  1  0.276178602624  0.502080000000
  OCA    CN  1  0.280633096214  0.648182492821
  OCA    NC  1  0.289542083396  1.122685010143
  OCA   OCA  1  0.249451641079  0.502080000000
  OCA   COA  1  0.302905564168  0.480705002262
  OCA   CF1  1  0.293996576986  0.355024172698
  OCA   CF2  1  0.307360057758  0.297034533750
  OCA   CF3  1  0.329632525712  0.204973301676
  OCA   HF1  1  0.242324451334  0.242527681224
  OCA   HF2  1  0.240542653898  0.251040000000
  OCA    F1  1  0.269942311597  0.532536259047
  OCA    F2  1  0.269942311597  0.469652835188
  OCA    F3  1  0.267269615442  0.451406871724
  OCA    OX  1  0.276178602624  0.502080000000
  OCA    HX  1  0.144726496762  0.310857403193
  OCA  HPER  1  0.144726496762  0.310857403193
  OCA  OPER  1  0.273882756627  0.654375459843
  OCA   LIT  1  0.240319929218  0.069961684782
  OCA   RUB  1  0.293996576986  0.561342505072
  OCA   BAR  1  0.293105678268  0.561342505072
  OCA   CAD  1  0.245620776591  0.502080000000
  OCA  ON2B  1  0.282414893650  0.565258245152
  OCA    SP  1  0.320723538531  0.972273739232
  OCA   HNP  1  0.245727684437  0.251040000000
  OCA  HNE1  1  0.236088160307  0.255189702614
  OCA  HNE2  1  0.236979059025  0.233705521373
  OCA  CN3D  1  0.293996576986  0.434814034732
  OCA  CNE1  1  0.310923652631  0.377952093472
  OCA  CNE2  1  0.310032753913  0.366667388896
  OCA   CNA  1  0.302228481142  0.383469934154
  OCA  CNA2  1  0.293996576986  0.383469934154
  OCA   CNG  1  0.302905564168  0.480705002262
  OCA  NN1C  1  0.289542083396  0.648182492821
  OCA  NN2C  1  0.289542083396  0.648182492821
  OCA  NN3I  1  0.289542083396  0.648182492821
  OCA   NNG  1  0.289542083396  0.648182492821
  OCA   FNA  1  0.276178602624  0.502080000000
  OCA  ON2M  1  0.271724109033  0.458334236120
  OCA   CN6  1  0.293996576986  0.144938011577
  OCA  CN7E  1  0.293996576986  0.144938011577
  OCA  CT2P  1  0.293996576986  0.144938011577
  OCA  CTD1  1  0.293996576986  0.144938011577
  OCA  CPD1  1  0.293996576986  0.144938011577
  OCA  CC1A  1  0.310923652631  0.377952093472
  OCA  CC1B  1  0.310923652631  0.377952093472
  OCA   CC2  1  0.310032753913  0.366667388896
  OCA   NS1  1  0.289542083396  0.648182492821
  OCA   NS2  1  0.289542083396  0.648182492821
  OCA   NHL  1  0.262815121851  0.648182492821
  OCA  CTO1  1  0.293996576986  0.144938011577
  OCA  CEL3  1  0.310923652631  0.377952093472
  OCA  CTO2  1  0.293996576986  0.144938011577
  OCA  HN3B  1  0.204906705172  0.310857403193
  OCA  CN1A  1  0.302905564168  0.383469934154
  OCA  CN3A  1  0.285087589805  0.614919905028
  OCA  CN3B  1  0.285087589805  0.614919905028
  OCA  CN3C  1  0.285087589805  0.614919905028
  CN6     C  1  0.347450500075  0.138767581228
  CN6    CA  1  0.346773417049  0.110698234855
  CN6    CC  1  0.347450500075  0.110698234855
  CN6    CD  1  0.347450500075  0.110698234855
  CN6   CE1  1  0.355468588538  0.109105371453
  CN6   CE2  1  0.354577689820  0.105847757841
  CN6   CP1  1  0.338541512893  0.041840000000
  CN6   CP2  1  0.338541512893  0.041840000000
  CN6   CP3  1  0.338541512893  0.041840000000
  CN6  CPH1  1  0.329632525712  0.093557084179
  CN6  CPH2  1  0.329632525712  0.093557084179
  CN6    CS  1  0.365268474438  0.138767581228
  CN6   CPT  1  0.334977918021  0.131646486622
  CN6    CY  1  0.346559601357  0.113045454929
  CN6   CAI  1  0.346559601357  0.113045454929
  CN6    CT  1  0.338541512893  0.041840000000
  CN6   CT1  1  0.338541512893  0.041840000000
  CN6   CT2  1  0.338541512893  0.041840000000
  CN6  CT2A  1  0.338541512893  0.041840000000
  CN6   CT3  1  0.338541512893  0.041840000000
  CN6    C3  1  0.371950214824  0.059170695450
  CN6     H  1  0.189271432669  0.089736802707
  CN6    HA  1  0.286869387241  0.062058748940
  CN6   HB1  1  0.286869387241  0.062058748940
  CN6   HB2  1  0.288651184677  0.070011711020
  CN6   HE1  1  0.280633096214  0.073666921749
  CN6   HE2  1  0.281523994932  0.067464972838
  CN6    HC  1  0.189271432669  0.089736802707
  CN6    HP  1  0.290272620344  0.072469005789
  CN6   HR1  1  0.249451641079  0.089736802707
  CN6   HR2  1  0.231633666716  0.089736802707
  CN6   HR3  1  0.300054688270  0.036952087465
  CN6    HS  1  0.209361198763  0.132309697301
  CN6   HA1  1  0.288651184677  0.088756043175
  CN6   HA2  1  0.288651184677  0.077149148019
  CN6   HA3  1  0.288651184677  0.064818249282
  CN6     N  1  0.334087019303  0.004184000000
  CN6   NC2  1  0.334087019303  0.187114168357
  CN6   NH1  1  0.307360057758  0.187114168357
  CN6   NH2  1  0.334087019303  0.187114168357
  CN6   NH3  1  0.334087019303  0.187114168357
  CN6    NP  1  0.334087019303  0.187114168357
  CN6   NR1  1  0.334087019303  0.187114168357
  CN6   NR2  1  0.334087019303  0.187114168357
  CN6   NR3  1  0.334087019303  0.187114168357
  CN6    NY  1  0.334087019303  0.187114168357
  CN6     O  1  0.293996576986  0.144938011577
  CN6    OB  1  0.293996576986  0.144938011577
  CN6    OC  1  0.320723538531  0.144938011577
  CN6   OH1  1  0.326959829558  0.163176000000
  CN6    OS  1  0.326959829558  0.163176000000
  CN6     S  1  0.347450500075  0.280671252536
  CN6    SM  1  0.345223253279  0.257919081884
  CN6    SS  1  0.365268474438  0.286840588481
  CN6  HGA1  1  0.288651184677  0.088756043175
  CN6  HGA2  1  0.288651184677  0.078275472531
  CN6  HGA3  1  0.288651184677  0.064818249282
  CN6  HGA4  1  0.280633096214  0.073666921749
  CN6  HGA5  1  0.281523994932  0.067464972838
  CN6  HGA6  1  0.286869387241  0.070011711020
  CN6  HGA7  1  0.285087589805  0.072469005789
  CN6 HGAAM0  1  0.283305792369  0.070011711020
  CN6 HGAAM1  1  0.283305792369  0.070011711020
  CN6 HGAAM2  1  0.281523994932  0.083680000000
  CN6  HGP1  1  0.189271432669  0.089736802707
  CN6  HGP2  1  0.189271432669  0.089736802707
  CN6  HGP3  1  0.209361198763  0.132309697301
  CN6  HGP4  1  0.189271432669  0.089736802707
  CN6  HGP5  1  0.231633666716  0.089736802707
  CN6 HGPAM1  1  0.247224394284  0.039692909190
  CN6 HGPAM2  1  0.247224394284  0.041840000000
  CN6 HGPAM3  1  0.246778944925  0.045833423612
  CN6 HGR51  1  0.290272620344  0.072469005789
  CN6 HGR52  1  0.249451641079  0.089736802707
  CN6 HGR53  1  0.231633666716  0.089736802707
  CN6 HGR61  1  0.290272620344  0.072469005789
  CN6 HGR62  1  0.267269615442  0.089736802707
  CN6 HGR63  1  0.249451641079  0.089736802707
  CN6 HGR71  1  0.290272620344  0.072469005789
  CN6 HGTIP3  1  0.189271432669  0.089736802707
  CN6 CG1T1  1  0.333196120584  0.170981810495
  CN6 CG1T2  1  0.346782326036  0.134409982486
  CN6 CG1N1  1  0.335868816739  0.177512086349
  CN6 CG2D1  1  0.355468588538  0.109105371453
  CN6 CG2D2  1  0.354577689820  0.105847757841
  CN6 CG2D1O  1  0.355468588538  0.109105371453
  CN6 CG2D2O  1  0.355468588538  0.109105371453
  CN6 CG2DC1  1  0.355468588538  0.109105371453
  CN6 CG2DC2  1  0.355468588538  0.109105371453
  CN6 CG2DC3  1  0.354577689820  0.105847757841
  CN6 CG2N1  1  0.347450500075  0.138767581228
  CN6 CG2N2  1  0.347450500075  0.138767581228
  CN6 CG2O1  1  0.347450500075  0.138767581228
  CN6 CG2O2  1  0.320723538531  0.130979917850
  CN6 CG2O3  1  0.347450500075  0.110698234855
  CN6 CG2O4  1  0.329632525712  0.102486650838
  CN6 CG2O5  1  0.347450500075  0.125520000000
  CN6 CG2O6  1  0.347450500075  0.110698234855
  CN6 CG2O7  1  0.308518226092  0.100764063435
  CN6 CG2R51  1  0.356359487256  0.093557084179
  CN6 CG2R52  1  0.365268474438  0.059170695450
  CN6 CG2R53  1  0.365268474438  0.059170695450
  CN6 CG2R57  1  0.356359487256  0.093557084179
  CN6 CG25C1  1  0.355468588538  0.109105371453
  CN6 CG25C2  1  0.355468588538  0.109105371453
  CN6 CG251O  1  0.355468588538  0.109105371453
  CN6 CG252O  1  0.355468588538  0.109105371453
  CN6 CG2R61  1  0.346773417049  0.110698234855
  CN6 CG2R62  1  0.338541512893  0.125520000000
  CN6 CG2R63  1  0.338541512893  0.132309697301
  CN6 CG2R64  1  0.356359487256  0.083680000000
  CN6 CG2R66  1  0.338541512893  0.110698234855
  CN6 CG2R67  1  0.346773417049  0.110698234855
  CN6 CG2RC0  1  0.334977918021  0.131646486622
  CN6 CG2R71  1  0.346987232741  0.108300154755
  CN6 CG2RC7  1  0.334977918021  0.131646486622
  CN6 CG301  1  0.338541512893  0.041840000000
  CN6 CG302  1  0.374177461619  0.059170695450
  CN6 CG311  1  0.338541512893  0.041840000000
  CN6 CG312  1  0.351904993665  0.085746484010
  CN6 CG314  1  0.338541512893  0.041840000000
  CN6 CG321  1  0.338541512893  0.041840000000
  CN6 CG322  1  0.338541512893  0.102486650838
  CN6 CG323  1  0.365268474438  0.138767581228
  CN6 CG324  1  0.338541512893  0.041840000000
  CN6 CG331  1  0.338541512893  0.041840000000
  CN6 CG334  1  0.338541512893  0.041840000000
  CN6 CG3C50  1  0.338541512893  0.041840000000
  CN6 CG3C51  1  0.338541512893  0.041840000000
  CN6 CG3C52  1  0.338541512893  0.041840000000
  CN6 CG3C53  1  0.338541512893  0.041840000000
  CN6 CG3C54  1  0.338541512893  0.041840000000
  CN6 CG3C31  1  0.338541512893  0.041840000000
  CN6 CG3C41  1  0.338541512893  0.041840000000
  CN6 CG3RC1  1  0.338541512893  0.041840000000
  CN6 CG3AM0  1  0.344777803920  0.110698234855
  CN6 CG3AM1  1  0.345668702638  0.116852760686
  CN6 CG3AM2  1  0.346559601357  0.118341390899
  CN6 NG1T1  1  0.328741626994  0.177512086349
  CN6 NG2D1  1  0.334087019303  0.187114168357
  CN6 NG2S0  1  0.334087019303  0.004184000000
  CN6 NG2S1  1  0.307360057758  0.187114168357
  CN6 NG2S2  1  0.334087019303  0.187114168357
  CN6 NG2S3  1  0.334087019303  0.187114168357
  CN6 NG2O1  1  0.334087019303  0.187114168357
  CN6 NG2P1  1  0.334087019303  0.187114168357
  CN6 NG2R43  1  0.334087019303  0.187114168357
  CN6 NG2R50  1  0.334087019303  0.187114168357
  CN6 NG2R51  1  0.334087019303  0.187114168357
  CN6 NG2R52  1  0.334087019303  0.187114168357
  CN6 NG2R53  1  0.334087019303  0.187114168357
  CN6 NG2R57  1  0.334087019303  0.187114168357
  CN6 NG2R60  1  0.337650614175  0.102486650838
  CN6 NG2R61  1  0.334087019303  0.187114168357
  CN6 NG2R62  1  0.352795892384  0.093557084179
  CN6 NG2R67  1  0.334087019303  0.187114168357
  CN6 NG2RC0  1  0.334087019303  0.187114168357
  CN6 NG301  1  0.347450500075  0.078275472531
  CN6 NG311  1  0.347450500075  0.088756043175
  CN6 NG321  1  0.346559601357  0.102486650838
  CN6 NG331  1  0.345668702638  0.110698234855
  CN6 NG3C51  1  0.334087019303  0.187114168357
  CN6 NG3N1  1  0.351904993665  0.102486650838
  CN6 NG3P0  1  0.334087019303  0.187114168357
  CN6 NG3P1  1  0.334087019303  0.187114168357
  CN6 NG3P2  1  0.334087019303  0.187114168357
  CN6 NG3P3  1  0.334087019303  0.187114168357
  CN6 OG2D1  1  0.293996576986  0.144938011577
  CN6 OG2D2  1  0.320723538531  0.144938011577
  CN6 OG2D3  1  0.293996576986  0.144938011577
  CN6 OG2D4  1  0.320723538531  0.144938011577
  CN6 OG2D5  1  0.320010819556  0.169954883425
  CN6 OG2N1  1  0.320723538531  0.144938011577
  CN6 OG2P1  1  0.320723538531  0.144938011577
  CN6 OG2R50  1  0.320723538531  0.144938011577
  CN6 OG3R60  1  0.316269044940  0.132309697301
  CN6 OG301  1  0.316269044940  0.132309697301
  CN6 OG302  1  0.316269044940  0.132309697301
  CN6 OG303  1  0.316269044940  0.132309697301
  CN6 OG304  1  0.316269044940  0.132309697301
  CN6 OG311  1  0.326514380198  0.183381431383
  CN6 OG312  1  0.325178032121  0.144938011577
  CN6 OG3C31  1  0.316269044940  0.132309697301
  CN6 OG3C51  1  0.316269044940  0.132309697301
  CN6 OG3C61  1  0.316269044940  0.132309697301
  CN6 OGTIP3  1  0.326799467788  0.163176000000
  CN6 SG2D1  1  0.351904993665  0.314496560236
  CN6 SG2R50  1  0.347450500075  0.280671252536
  CN6 SG311  1  0.347450500075  0.280671252536
  CN6 SG301  1  0.345223253279  0.257919081884
  CN6 SG302  1  0.365268474438  0.286840588481
  CN6 SG3O1  1  0.356359487256  0.286840588481
  CN6 SG3O2  1  0.347450500075  0.247528778125
  CN6 SG3O3  1  0.347450500075  0.247528778125
  CN6  FGA1  1  0.314487247504  0.153729976257
  CN6  FGA2  1  0.314487247504  0.135577095411
  CN6  FGA3  1  0.311814551349  0.130309939452
  CN6  FGP1  1  0.311814551349  0.130309939452
  CN6  FGR1  1  0.320723538531  0.144938011577
  CN6 CLGA1  1  0.339432411611  0.245040988571
  CN6 CLGA3  1  0.339432411611  0.232955260941
  CN6 BRGA1  1  0.344777803920  0.289876023155
  CN6 BRGA2  1  0.351904993665  0.304599797767
  CN6 BRGA3  1  0.347450500075  0.307459952514
  CN6   SOD  1  0.294954293108  0.090610410351
  CN6   CLA  1  0.371504765465  0.162045623205
  CN6   PG0  1  0.360813980847  0.320014464673
  CN6   PG1  1  0.360813980847  0.320014464673
  CN6   PG2  1  0.360813980847  0.320014464673
  CN6  ALG1  1  0.347450500075  0.337324864189
  CN6   LPH  1  0.169270756447  0.000000000000
  CN6 CLGR1  1  0.334977918021  0.200657590935
  CN6 BRGR1  1  0.345668702638  0.236682781799
  CN6  IGR1  1  0.368832069310  0.301712530731
  CN6 SG2P1  1  0.355798221064  0.332305491450
  CN6 OG2S1  1  0.318906105146  0.157831660601
  CN6 SG2P2  1  0.352314807076  0.329421919951
  CN6 SEGD1  1  0.363041227642  0.330244580395
  CN6 BG201  1  0.396449929572  0.081561175077
  CN6 CC301  1  0.338541512893  0.041840000000
  CN6 CC3062  1  0.338541512893  0.041840000000
  CN6 CC311  1  0.338541512893  0.041840000000
  CN6 CC3161  1  0.338541512893  0.041840000000
  CN6 CC3162  1  0.338541512893  0.041840000000
  CN6 CC3163  1  0.338541512893  0.041840000000
  CN6 CC321  1  0.338541512893  0.041840000000
  CN6 CC3261  1  0.338541512893  0.041840000000
  CN6 CC3263  1  0.338541512893  0.041840000000
  CN6 CC331  1  0.338541512893  0.041840000000
  CN6 CC2O1  1  0.347450500075  0.138767581228
  CN6 CC2O2  1  0.347450500075  0.110698234855
  CN6 CC2O3  1  0.347450500075  0.125520000000
  CN6 CC2O4  1  0.329632525712  0.102486650838
  CN6 CC2O5  1  0.320723538531  0.130979917850
  CN6 OC2D1  1  0.293996576986  0.144938011577
  CN6 OC2D2  1  0.320723538531  0.144938011577
  CN6 OC2D3  1  0.293996576986  0.144938011577
  CN6 OC2D4  1  0.293996576986  0.144938011577
  CN6 OC3C61  1  0.316269044940  0.132309697301
  CN6 OC311  1  0.326514380198  0.183381431383
  CN6 NC2D1  1  0.307360057758  0.187114168357
  CN6  HCP1  1  0.189271432669  0.089736802707
  CN6  HCA1  1  0.288651184677  0.088756043175
  CN6  HCA2  1  0.288651184677  0.078275472531
  CN6  HCA3  1  0.288651184677  0.064818249282
  CN6 CC312  1  0.338541512893  0.041840000000
  CN6 CC322  1  0.338541512893  0.041840000000
  CN6  HCR1  1  0.240542653898  0.089736802707
  CN6 HCA3M  1  0.288651184677  0.064818249282
  CN6 CC321C  1  0.338541512893  0.041840000000
  CN6 CC321D  1  0.338541512893  0.041840000000
  CN6 CC311C  1  0.338541512893  0.041840000000
  CN6 CC311D  1  0.338541512893  0.041840000000
  CN6 OC301  1  0.316269044940  0.132309697301
  CN6 OC302  1  0.316269044940  0.132309697301
  CN6 HCP1M  1  0.189271432669  0.089736802707
  CN6 OC311M  1  0.326514380198  0.183381431383
  CN6 OC3C5M  1  0.316269044940  0.132309697301
  CN6 CC322C  1  0.338541512893  0.041840000000
  CN6 HCA2C2  1  0.285087589805  0.078275472531
  CN6 CC312C  1  0.338541512893  0.041840000000
  CN6 HCA1C2  1  0.288651184677  0.088756043175
  CN6 OC3C51  1  0.316269044940  0.132309697301
  CN6 CC3152  1  0.338541512893  0.041840000000
  CN6 CC3051  1  0.338541512893  0.041840000000
  CN6 CC3251  1  0.338541512893  0.041840000000
  CN6 CC3151  1  0.338541512893  0.041840000000
  CN6 CC3153  1  0.338541512893  0.041840000000
  CN6 OC2DP  1  0.320723538531  0.144938011577
  CN6 OC312  1  0.326959829558  0.163176000000
  CN6 OC30P  1  0.326959829558  0.163176000000
  CN6    PC  1  0.360813980847  0.320014464673
  CN6    SC  1  0.356359487256  0.286840588481
  CN6 CC312D  1  0.338541512893  0.041840000000
  CN6 OC303  1  0.316269044940  0.132309697301
  CN6 NC311  1  0.347450500075  0.088756043175
  CN6   HN1  1  0.189271432669  0.089736802707
  CN6   HN2  1  0.189271432669  0.089736802707
  CN6   HN3  1  0.267269615442  0.089736802707
  CN6   HN4  1  0.189271432669  0.089736802707
  CN6   HN5  1  0.189271432669  0.089736802707
  CN6   HN6  1  0.286869387241  0.062058748940
  CN6   HN7  1  0.286869387241  0.062058748940
  CN6   HN8  1  0.288651184677  0.070011711020
  CN6   HN9  1  0.288651184677  0.064818249282
  CN6   NN1  1  0.334087019303  0.187114168357
  CN6   NN2  1  0.334087019303  0.187114168357
  CN6  NN2B  1  0.334087019303  0.187114168357
  CN6  NN2G  1  0.334087019303  0.187114168357
  CN6  NN2U  1  0.334087019303  0.187114168357
  CN6   NN3  1  0.334087019303  0.187114168357
  CN6  NN3A  1  0.334087019303  0.187114168357
  CN6  NN3G  1  0.334087019303  0.187114168357
  CN6   NN4  1  0.334087019303  0.187114168357
  CN6   NN6  1  0.334087019303  0.187114168357
  CN6   ON1  1  0.320723538531  0.144938011577
  CN6  ON1C  1  0.320723538531  0.144938011577
  CN6   ON2  1  0.326959829558  0.163176000000
  CN6   ON3  1  0.320723538531  0.144938011577
  CN6   ON4  1  0.326959829558  0.163176000000
  CN6   ON5  1  0.326959829558  0.163176000000
  CN6   ON6  1  0.326959829558  0.163176000000
  CN6  ON6B  1  0.326959829558  0.163176000000
  CN6   CN1  1  0.338541512893  0.132309697301
  CN6  CN1T  1  0.338541512893  0.132309697301
  CN6   CN2  1  0.338541512893  0.132309697301
  CN6   CN3  1  0.338541512893  0.125520000000
  CN6  CN3T  1  0.338541512893  0.125520000000
  CN6   CN4  1  0.338541512893  0.114583559030
  CN6   CN5  1  0.338541512893  0.114583559030
  CN6  CN5G  1  0.338541512893  0.114583559030
  CN6   CN7  1  0.338541512893  0.041840000000
  CN6  CN7B  1  0.338541512893  0.041840000000
  CN6   CN8  1  0.338541512893  0.041840000000
  CN6  CN8B  1  0.338541512893  0.041840000000
  CN6   CN9  1  0.338541512893  0.041840000000
  CN6     P  1  0.360813980847  0.320014464673
  CN6    P2  1  0.360813980847  0.320014464673
  CN6    P3  1  0.360813980847  0.320014464673
  CN6    P4  1  0.360813980847  0.320014464673
  CN6   HOL  1  0.189271432669  0.089736802707
  CN6  HAL1  1  0.286869387241  0.062058748940
  CN6  HAL2  1  0.288651184677  0.070011711020
  CN6  HAL3  1  0.288651184677  0.064818249282
  CN6   HBL  1  0.286869387241  0.062058748940
  CN6   HCL  1  0.189271432669  0.089736802707
  CN6    HL  1  0.231633666716  0.089736802707
  CN6  HEL1  1  0.280633096214  0.073666921749
  CN6  HEL2  1  0.281523994932  0.067464972838
  CN6    CL  1  0.347450500075  0.110698234855
  CN6   CCL  1  0.347450500075  0.110698234855
  CN6  CTL1  1  0.338541512893  0.041840000000
  CN6  CTL2  1  0.338541512893  0.041840000000
  CN6  CTL3  1  0.338541512893  0.041840000000
  CN6  CTL5  1  0.338541512893  0.041840000000
  CN6  CEL1  1  0.355468588538  0.109105371453
  CN6  CEL2  1  0.354577689820  0.105847757841
  CN6  CRL1  1  0.338541512893  0.041840000000
  CN6  CRL2  1  0.338541512893  0.041840000000
  CN6   OBL  1  0.293996576986  0.144938011577
  CN6   OCL  1  0.320723538531  0.144938011577
  CN6   O2L  1  0.320723538531  0.144938011577
  CN6   OHL  1  0.326959829558  0.163176000000
  CN6   OSL  1  0.316269044940  0.132309697301
  CN6  OSLP  1  0.316269044940  0.132309697301
  CN6  NH3L  1  0.334087019303  0.187114168357
  CN6   NTL  1  0.334087019303  0.187114168357
  CN6    SL  1  0.356359487256  0.286840588481
  CN6    PL  1  0.360813980847  0.320014464673
  CN6 HCA1A  1  0.288651184677  0.088756043175
  CN6 HCA2A  1  0.288651184677  0.078275472531
  CN6 HCA3A  1  0.288651184677  0.064818249282
  CN6 CC30A  1  0.338541512893  0.041840000000
  CN6 CC31A  1  0.338541512893  0.041840000000
  CN6 CC32A  1  0.338541512893  0.041840000000
  CN6 CC33A  1  0.338541512893  0.041840000000
  CN6 CC326A  1  0.338541512893  0.041840000000
  CN6 HCA25A  1  0.285087589805  0.078275472531
  CN6 CC325A  1  0.338541512893  0.041840000000
  CN6 CC325B  1  0.338541512893  0.041840000000
  CN6 OC305A  1  0.316269044940  0.132309697301
  CN6 OC30A  1  0.316269044940  0.132309697301
  CN6  HSIO  1  0.189271432669  0.089736802707
  CN6  HSIA  1  0.286869387241  0.062058748940
  CN6   HAL  1  0.286869387241  0.062058748940
  CN6    AL  1  0.365268474438  0.337324864189
  CN6    SI  1  0.365268474438  0.324091246411
  CN6  SIH3  1  0.365268474438  0.324091246411
  CN6  OSIH  1  0.326959829558  0.163176000000
  CN6  OSIE  1  0.326959829558  0.163176000000
  CN6  OSIA  1  0.326959829558  0.163176000000
  CN6   OAL  1  0.326959829558  0.163176000000
  CN6    HT  1  0.189271432669  0.089736802707
  CN6    OT  1  0.326799467788  0.163176000000
  CN6   DUM  1  0.169270756447  0.000000000000
  CN6    CM  1  0.356359487256  0.138767581228
  CN6   CPA  1  0.329632525712  0.125520000000
  CN6   CPB  1  0.329632525712  0.125520000000
  CN6   CPM  1  0.329632525712  0.125520000000
  CN6   CST  1  0.308518226092  0.100764063435
  CN6  CT1X  1  0.338541512893  0.041840000000
  CN6  CT2X  1  0.338541512893  0.041840000000
  CN6  CT3X  1  0.338541512893  0.041840000000
  CN6    HB  1  0.286869387241  0.062058748940
  CN6   NPH  1  0.334087019303  0.187114168357
  CN6    OM  1  0.320723538531  0.144938011577
  CN6   OST  1  0.320010819556  0.169954883425
  CN6   POT  1  0.326403017859  0.123410269913
  CN6   CAL  1  0.291056611216  0.144938011577
  CN6    MG  1  0.274842254546  0.051243325419
  CN6   CES  1  0.356359487256  0.182376331798
  CN6    ZN  1  0.266378716724  0.209200000000
  CN6    FE  1  0.227179173126  0.000000000000
  CN6    HE  1  0.301123766731  0.061020452073
  CN6    NE  1  0.305578260322  0.122698965603
  CN6  CLAL  1  0.339272049842  0.072469005789
  CN6    AG  1  0.300901042052  0.893457908130
  CN6    AU  1  0.300722862308  0.962320000000
  CN6    CU  1  0.285800308779  0.908997471504
  CN6    NI  1  0.282949432881  0.994525446633
  CN6    PB  1  0.328073452955  0.716185437439
  CN6    PD  1  0.294842930769  1.037598257516
  CN6    PT  1  0.296001099102  1.168527606863
  CN6   CAP  1  0.346773417049  0.110698234855
  CN6    FA  1  0.320723538531  0.144938011577
  CN6    CN  1  0.325178032121  0.187114168357
  CN6    NC  1  0.334087019303  0.324091246411
  CN6   OCA  1  0.293996576986  0.144938011577
  CN6   COA  1  0.347450500075  0.138767581228
  CN6   CF1  1  0.338541512893  0.102486650838
  CN6   CF2  1  0.351904993665  0.085746484010
  CN6   CF3  1  0.374177461619  0.059170695450
  CN6   HF1  1  0.286869387241  0.070011711020
  CN6   HF2  1  0.285087589805  0.072469005789
  CN6    F1  1  0.314487247504  0.153729976257
  CN6    F2  1  0.314487247504  0.135577095411
  CN6    F3  1  0.311814551349  0.130309939452
  CN6    OX  1  0.320723538531  0.144938011577
  CN6    HX  1  0.189271432669  0.089736802707
  CN6  HPER  1  0.189271432669  0.089736802707
  CN6  OPER  1  0.318427692534  0.188901923946
  CN6   LIT  1  0.284864865125  0.020196198771
  CN6   RUB  1  0.338541512893  0.162045623205
  CN6   BAR  1  0.337650614175  0.162045623205
  CN6   CAD  1  0.290165712498  0.144938011577
  CN6  ON2B  1  0.326959829558  0.163176000000
  CN6    SP  1  0.365268474438  0.280671252536
  CN6   HNP  1  0.290272620344  0.072469005789
  CN6  HNE1  1  0.280633096214  0.073666921749
  CN6  HNE2  1  0.281523994932  0.067464972838
  CN6  CN3D  1  0.338541512893  0.125520000000
  CN6  CNE1  1  0.355468588538  0.109105371453
  CN6  CNE2  1  0.354577689820  0.105847757841
  CN6   CNA  1  0.346773417049  0.110698234855
  CN6  CNA2  1  0.338541512893  0.110698234855
  CN6   CNG  1  0.347450500075  0.138767581228
  CN6  NN1C  1  0.334087019303  0.187114168357
  CN6  NN2C  1  0.334087019303  0.187114168357
  CN6  NN3I  1  0.334087019303  0.187114168357
  CN6   NNG  1  0.334087019303  0.187114168357
  CN6   FNA  1  0.320723538531  0.144938011577
  CN6  ON2M  1  0.316269044940  0.132309697301
  CN6   CN6  1  0.338541512893  0.041840000000
  CN6  CN7E  1  0.338541512893  0.041840000000
  CN6  CT2P  1  0.338541512893  0.041840000000
  CN6  CTD1  1  0.338541512893  0.041840000000
  CN6  CPD1  1  0.338541512893  0.041840000000
  CN6  CC1A  1  0.355468588538  0.109105371453
  CN6  CC1B  1  0.355468588538  0.109105371453
  CN6   CC2  1  0.354577689820  0.105847757841
  CN6   NS1  1  0.334087019303  0.187114168357
  CN6   NS2  1  0.334087019303  0.187114168357
  CN6   NHL  1  0.307360057758  0.187114168357
  CN6  CTO1  1  0.338541512893  0.041840000000
  CN6  CEL3  1  0.355468588538  0.109105371453
  CN6  CTO2  1  0.338541512893  0.041840000000
  CN6  HN3B  1  0.249451641079  0.089736802707
  CN6  CN1A  1  0.347450500075  0.110698234855
  CN6  CN3A  1  0.329632525712  0.177512086349
  CN6  CN3B  1  0.329632525712  0.177512086349
  CN6  CN3C  1  0.329632525712  0.177512086349
 CN7E     C  1  0.347450500075  0.138767581228
 CN7E    CA  1  0.346773417049  0.110698234855
 CN7E    CC  1  0.347450500075  0.110698234855
 CN7E    CD  1  0.347450500075  0.110698234855
 CN7E   CE1  1  0.355468588538  0.109105371453
 CN7E   CE2  1  0.354577689820  0.105847757841
 CN7E   CP1  1  0.338541512893  0.041840000000
 CN7E   CP2  1  0.338541512893  0.041840000000
 CN7E   CP3  1  0.338541512893  0.041840000000
 CN7E  CPH1  1  0.329632525712  0.093557084179
 CN7E  CPH2  1  0.329632525712  0.093557084179
 CN7E    CS  1  0.365268474438  0.138767581228
 CN7E   CPT  1  0.334977918021  0.131646486622
 CN7E    CY  1  0.346559601357  0.113045454929
 CN7E   CAI  1  0.346559601357  0.113045454929
 CN7E    CT  1  0.338541512893  0.041840000000
 CN7E   CT1  1  0.338541512893  0.041840000000
 CN7E   CT2  1  0.338541512893  0.041840000000
 CN7E  CT2A  1  0.338541512893  0.041840000000
 CN7E   CT3  1  0.338541512893  0.041840000000
 CN7E    C3  1  0.371950214824  0.059170695450
 CN7E     H  1  0.189271432669  0.089736802707
 CN7E    HA  1  0.286869387241  0.062058748940
 CN7E   HB1  1  0.286869387241  0.062058748940
 CN7E   HB2  1  0.288651184677  0.070011711020
 CN7E   HE1  1  0.280633096214  0.073666921749
 CN7E   HE2  1  0.281523994932  0.067464972838
 CN7E    HC  1  0.189271432669  0.089736802707
 CN7E    HP  1  0.290272620344  0.072469005789
 CN7E   HR1  1  0.249451641079  0.089736802707
 CN7E   HR2  1  0.231633666716  0.089736802707
 CN7E   HR3  1  0.300054688270  0.036952087465
 CN7E    HS  1  0.209361198763  0.132309697301
 CN7E   HA1  1  0.288651184677  0.088756043175
 CN7E   HA2  1  0.288651184677  0.077149148019
 CN7E   HA3  1  0.288651184677  0.064818249282
 CN7E     N  1  0.334087019303  0.004184000000
 CN7E   NC2  1  0.334087019303  0.187114168357
 CN7E   NH1  1  0.307360057758  0.187114168357
 CN7E   NH2  1  0.334087019303  0.187114168357
 CN7E   NH3  1  0.334087019303  0.187114168357
 CN7E    NP  1  0.334087019303  0.187114168357
 CN7E   NR1  1  0.334087019303  0.187114168357
 CN7E   NR2  1  0.334087019303  0.187114168357
 CN7E   NR3  1  0.334087019303  0.187114168357
 CN7E    NY  1  0.334087019303  0.187114168357
 CN7E     O  1  0.293996576986  0.144938011577
 CN7E    OB  1  0.293996576986  0.144938011577
 CN7E    OC  1  0.320723538531  0.144938011577
 CN7E   OH1  1  0.326959829558  0.163176000000
 CN7E    OS  1  0.326959829558  0.163176000000
 CN7E     S  1  0.347450500075  0.280671252536
 CN7E    SM  1  0.345223253279  0.257919081884
 CN7E    SS  1  0.365268474438  0.286840588481
 CN7E  HGA1  1  0.288651184677  0.088756043175
 CN7E  HGA2  1  0.288651184677  0.078275472531
 CN7E  HGA3  1  0.288651184677  0.064818249282
 CN7E  HGA4  1  0.280633096214  0.073666921749
 CN7E  HGA5  1  0.281523994932  0.067464972838
 CN7E  HGA6  1  0.286869387241  0.070011711020
 CN7E  HGA7  1  0.285087589805  0.072469005789
 CN7E HGAAM0  1  0.283305792369  0.070011711020
 CN7E HGAAM1  1  0.283305792369  0.070011711020
 CN7E HGAAM2  1  0.281523994932  0.083680000000
 CN7E  HGP1  1  0.189271432669  0.089736802707
 CN7E  HGP2  1  0.189271432669  0.089736802707
 CN7E  HGP3  1  0.209361198763  0.132309697301
 CN7E  HGP4  1  0.189271432669  0.089736802707
 CN7E  HGP5  1  0.231633666716  0.089736802707
 CN7E HGPAM1  1  0.247224394284  0.039692909190
 CN7E HGPAM2  1  0.247224394284  0.041840000000
 CN7E HGPAM3  1  0.246778944925  0.045833423612
 CN7E HGR51  1  0.290272620344  0.072469005789
 CN7E HGR52  1  0.249451641079  0.089736802707
 CN7E HGR53  1  0.231633666716  0.089736802707
 CN7E HGR61  1  0.290272620344  0.072469005789
 CN7E HGR62  1  0.267269615442  0.089736802707
 CN7E HGR63  1  0.249451641079  0.089736802707
 CN7E HGR71  1  0.290272620344  0.072469005789
 CN7E HGTIP3  1  0.189271432669  0.089736802707
 CN7E CG1T1  1  0.333196120584  0.170981810495
 CN7E CG1T2  1  0.346782326036  0.134409982486
 CN7E CG1N1  1  0.335868816739  0.177512086349
 CN7E CG2D1  1  0.355468588538  0.109105371453
 CN7E CG2D2  1  0.354577689820  0.105847757841
 CN7E CG2D1O  1  0.355468588538  0.109105371453
 CN7E CG2D2O  1  0.355468588538  0.109105371453
 CN7E CG2DC1  1  0.355468588538  0.109105371453
 CN7E CG2DC2  1  0.355468588538  0.109105371453
 CN7E CG2DC3  1  0.354577689820  0.105847757841
 CN7E CG2N1  1  0.347450500075  0.138767581228
 CN7E CG2N2  1  0.347450500075  0.138767581228
 CN7E CG2O1  1  0.347450500075  0.138767581228
 CN7E CG2O2  1  0.320723538531  0.130979917850
 CN7E CG2O3  1  0.347450500075  0.110698234855
 CN7E CG2O4  1  0.329632525712  0.102486650838
 CN7E CG2O5  1  0.347450500075  0.125520000000
 CN7E CG2O6  1  0.347450500075  0.110698234855
 CN7E CG2O7  1  0.308518226092  0.100764063435
 CN7E CG2R51  1  0.356359487256  0.093557084179
 CN7E CG2R52  1  0.365268474438  0.059170695450
 CN7E CG2R53  1  0.365268474438  0.059170695450
 CN7E CG2R57  1  0.356359487256  0.093557084179
 CN7E CG25C1  1  0.355468588538  0.109105371453
 CN7E CG25C2  1  0.355468588538  0.109105371453
 CN7E CG251O  1  0.355468588538  0.109105371453
 CN7E CG252O  1  0.355468588538  0.109105371453
 CN7E CG2R61  1  0.346773417049  0.110698234855
 CN7E CG2R62  1  0.338541512893  0.125520000000
 CN7E CG2R63  1  0.338541512893  0.132309697301
 CN7E CG2R64  1  0.356359487256  0.083680000000
 CN7E CG2R66  1  0.338541512893  0.110698234855
 CN7E CG2R67  1  0.346773417049  0.110698234855
 CN7E CG2RC0  1  0.334977918021  0.131646486622
 CN7E CG2R71  1  0.346987232741  0.108300154755
 CN7E CG2RC7  1  0.334977918021  0.131646486622
 CN7E CG301  1  0.338541512893  0.041840000000
 CN7E CG302  1  0.374177461619  0.059170695450
 CN7E CG311  1  0.338541512893  0.041840000000
 CN7E CG312  1  0.351904993665  0.085746484010
 CN7E CG314  1  0.338541512893  0.041840000000
 CN7E CG321  1  0.338541512893  0.041840000000
 CN7E CG322  1  0.338541512893  0.102486650838
 CN7E CG323  1  0.365268474438  0.138767581228
 CN7E CG324  1  0.338541512893  0.041840000000
 CN7E CG331  1  0.338541512893  0.041840000000
 CN7E CG334  1  0.338541512893  0.041840000000
 CN7E CG3C50  1  0.338541512893  0.041840000000
 CN7E CG3C51  1  0.338541512893  0.041840000000
 CN7E CG3C52  1  0.338541512893  0.041840000000
 CN7E CG3C53  1  0.338541512893  0.041840000000
 CN7E CG3C54  1  0.338541512893  0.041840000000
 CN7E CG3C31  1  0.338541512893  0.041840000000
 CN7E CG3C41  1  0.338541512893  0.041840000000
 CN7E CG3RC1  1  0.338541512893  0.041840000000
 CN7E CG3AM0  1  0.344777803920  0.110698234855
 CN7E CG3AM1  1  0.345668702638  0.116852760686
 CN7E CG3AM2  1  0.346559601357  0.118341390899
 CN7E NG1T1  1  0.328741626994  0.177512086349
 CN7E NG2D1  1  0.334087019303  0.187114168357
 CN7E NG2S0  1  0.334087019303  0.004184000000
 CN7E NG2S1  1  0.307360057758  0.187114168357
 CN7E NG2S2  1  0.334087019303  0.187114168357
 CN7E NG2S3  1  0.334087019303  0.187114168357
 CN7E NG2O1  1  0.334087019303  0.187114168357
 CN7E NG2P1  1  0.334087019303  0.187114168357
 CN7E NG2R43  1  0.334087019303  0.187114168357
 CN7E NG2R50  1  0.334087019303  0.187114168357
 CN7E NG2R51  1  0.334087019303  0.187114168357
 CN7E NG2R52  1  0.334087019303  0.187114168357
 CN7E NG2R53  1  0.334087019303  0.187114168357
 CN7E NG2R57  1  0.334087019303  0.187114168357
 CN7E NG2R60  1  0.337650614175  0.102486650838
 CN7E NG2R61  1  0.334087019303  0.187114168357
 CN7E NG2R62  1  0.352795892384  0.093557084179
 CN7E NG2R67  1  0.334087019303  0.187114168357
 CN7E NG2RC0  1  0.334087019303  0.187114168357
 CN7E NG301  1  0.347450500075  0.078275472531
 CN7E NG311  1  0.347450500075  0.088756043175
 CN7E NG321  1  0.346559601357  0.102486650838
 CN7E NG331  1  0.345668702638  0.110698234855
 CN7E NG3C51  1  0.334087019303  0.187114168357
 CN7E NG3N1  1  0.351904993665  0.102486650838
 CN7E NG3P0  1  0.334087019303  0.187114168357
 CN7E NG3P1  1  0.334087019303  0.187114168357
 CN7E NG3P2  1  0.334087019303  0.187114168357
 CN7E NG3P3  1  0.334087019303  0.187114168357
 CN7E OG2D1  1  0.293996576986  0.144938011577
 CN7E OG2D2  1  0.320723538531  0.144938011577
 CN7E OG2D3  1  0.293996576986  0.144938011577
 CN7E OG2D4  1  0.320723538531  0.144938011577
 CN7E OG2D5  1  0.320010819556  0.169954883425
 CN7E OG2N1  1  0.320723538531  0.144938011577
 CN7E OG2P1  1  0.320723538531  0.144938011577
 CN7E OG2R50  1  0.320723538531  0.144938011577
 CN7E OG3R60  1  0.316269044940  0.132309697301
 CN7E OG301  1  0.316269044940  0.132309697301
 CN7E OG302  1  0.316269044940  0.132309697301
 CN7E OG303  1  0.316269044940  0.132309697301
 CN7E OG304  1  0.316269044940  0.132309697301
 CN7E OG311  1  0.326514380198  0.183381431383
 CN7E OG312  1  0.325178032121  0.144938011577
 CN7E OG3C31  1  0.316269044940  0.132309697301
 CN7E OG3C51  1  0.316269044940  0.132309697301
 CN7E OG3C61  1  0.316269044940  0.132309697301
 CN7E OGTIP3  1  0.326799467788  0.163176000000
 CN7E SG2D1  1  0.351904993665  0.314496560236
 CN7E SG2R50  1  0.347450500075  0.280671252536
 CN7E SG311  1  0.347450500075  0.280671252536
 CN7E SG301  1  0.345223253279  0.257919081884
 CN7E SG302  1  0.365268474438  0.286840588481
 CN7E SG3O1  1  0.356359487256  0.286840588481
 CN7E SG3O2  1  0.347450500075  0.247528778125
 CN7E SG3O3  1  0.347450500075  0.247528778125
 CN7E  FGA1  1  0.314487247504  0.153729976257
 CN7E  FGA2  1  0.314487247504  0.135577095411
 CN7E  FGA3  1  0.311814551349  0.130309939452
 CN7E  FGP1  1  0.311814551349  0.130309939452
 CN7E  FGR1  1  0.320723538531  0.144938011577
 CN7E CLGA1  1  0.339432411611  0.245040988571
 CN7E CLGA3  1  0.339432411611  0.232955260941
 CN7E BRGA1  1  0.344777803920  0.289876023155
 CN7E BRGA2  1  0.351904993665  0.304599797767
 CN7E BRGA3  1  0.347450500075  0.307459952514
 CN7E   SOD  1  0.294954293108  0.090610410351
 CN7E   CLA  1  0.371504765465  0.162045623205
 CN7E   PG0  1  0.360813980847  0.320014464673
 CN7E   PG1  1  0.360813980847  0.320014464673
 CN7E   PG2  1  0.360813980847  0.320014464673
 CN7E  ALG1  1  0.347450500075  0.337324864189
 CN7E   LPH  1  0.169270756447  0.000000000000
 CN7E CLGR1  1  0.334977918021  0.200657590935
 CN7E BRGR1  1  0.345668702638  0.236682781799
 CN7E  IGR1  1  0.368832069310  0.301712530731
 CN7E SG2P1  1  0.355798221064  0.332305491450
 CN7E OG2S1  1  0.318906105146  0.157831660601
 CN7E SG2P2  1  0.352314807076  0.329421919951
 CN7E SEGD1  1  0.363041227642  0.330244580395
 CN7E BG201  1  0.396449929572  0.081561175077
 CN7E CC301  1  0.338541512893  0.041840000000
 CN7E CC3062  1  0.338541512893  0.041840000000
 CN7E CC311  1  0.338541512893  0.041840000000
 CN7E CC3161  1  0.338541512893  0.041840000000
 CN7E CC3162  1  0.338541512893  0.041840000000
 CN7E CC3163  1  0.338541512893  0.041840000000
 CN7E CC321  1  0.338541512893  0.041840000000
 CN7E CC3261  1  0.338541512893  0.041840000000
 CN7E CC3263  1  0.338541512893  0.041840000000
 CN7E CC331  1  0.338541512893  0.041840000000
 CN7E CC2O1  1  0.347450500075  0.138767581228
 CN7E CC2O2  1  0.347450500075  0.110698234855
 CN7E CC2O3  1  0.347450500075  0.125520000000
 CN7E CC2O4  1  0.329632525712  0.102486650838
 CN7E CC2O5  1  0.320723538531  0.130979917850
 CN7E OC2D1  1  0.293996576986  0.144938011577
 CN7E OC2D2  1  0.320723538531  0.144938011577
 CN7E OC2D3  1  0.293996576986  0.144938011577
 CN7E OC2D4  1  0.293996576986  0.144938011577
 CN7E OC3C61  1  0.316269044940  0.132309697301
 CN7E OC311  1  0.326514380198  0.183381431383
 CN7E NC2D1  1  0.307360057758  0.187114168357
 CN7E  HCP1  1  0.189271432669  0.089736802707
 CN7E  HCA1  1  0.288651184677  0.088756043175
 CN7E  HCA2  1  0.288651184677  0.078275472531
 CN7E  HCA3  1  0.288651184677  0.064818249282
 CN7E CC312  1  0.338541512893  0.041840000000
 CN7E CC322  1  0.338541512893  0.041840000000
 CN7E  HCR1  1  0.240542653898  0.089736802707
 CN7E HCA3M  1  0.288651184677  0.064818249282
 CN7E CC321C  1  0.338541512893  0.041840000000
 CN7E CC321D  1  0.338541512893  0.041840000000
 CN7E CC311C  1  0.338541512893  0.041840000000
 CN7E CC311D  1  0.338541512893  0.041840000000
 CN7E OC301  1  0.316269044940  0.132309697301
 CN7E OC302  1  0.316269044940  0.132309697301
 CN7E HCP1M  1  0.189271432669  0.089736802707
 CN7E OC311M  1  0.326514380198  0.183381431383
 CN7E OC3C5M  1  0.316269044940  0.132309697301
 CN7E CC322C  1  0.338541512893  0.041840000000
 CN7E HCA2C2  1  0.285087589805  0.078275472531
 CN7E CC312C  1  0.338541512893  0.041840000000
 CN7E HCA1C2  1  0.288651184677  0.088756043175
 CN7E OC3C51  1  0.316269044940  0.132309697301
 CN7E CC3152  1  0.338541512893  0.041840000000
 CN7E CC3051  1  0.338541512893  0.041840000000
 CN7E CC3251  1  0.338541512893  0.041840000000
 CN7E CC3151  1  0.338541512893  0.041840000000
 CN7E CC3153  1  0.338541512893  0.041840000000
 CN7E OC2DP  1  0.320723538531  0.144938011577
 CN7E OC312  1  0.326959829558  0.163176000000
 CN7E OC30P  1  0.326959829558  0.163176000000
 CN7E    PC  1  0.360813980847  0.320014464673
 CN7E    SC  1  0.356359487256  0.286840588481
 CN7E CC312D  1  0.338541512893  0.041840000000
 CN7E OC303  1  0.316269044940  0.132309697301
 CN7E NC311  1  0.347450500075  0.088756043175
 CN7E   HN1  1  0.189271432669  0.089736802707
 CN7E   HN2  1  0.189271432669  0.089736802707
 CN7E   HN3  1  0.267269615442  0.089736802707
 CN7E   HN4  1  0.189271432669  0.089736802707
 CN7E   HN5  1  0.189271432669  0.089736802707
 CN7E   HN6  1  0.286869387241  0.062058748940
 CN7E   HN7  1  0.286869387241  0.062058748940
 CN7E   HN8  1  0.288651184677  0.070011711020
 CN7E   HN9  1  0.288651184677  0.064818249282
 CN7E   NN1  1  0.334087019303  0.187114168357
 CN7E   NN2  1  0.334087019303  0.187114168357
 CN7E  NN2B  1  0.334087019303  0.187114168357
 CN7E  NN2G  1  0.334087019303  0.187114168357
 CN7E  NN2U  1  0.334087019303  0.187114168357
 CN7E   NN3  1  0.334087019303  0.187114168357
 CN7E  NN3A  1  0.334087019303  0.187114168357
 CN7E  NN3G  1  0.334087019303  0.187114168357
 CN7E   NN4  1  0.334087019303  0.187114168357
 CN7E   NN6  1  0.334087019303  0.187114168357
 CN7E   ON1  1  0.320723538531  0.144938011577
 CN7E  ON1C  1  0.320723538531  0.144938011577
 CN7E   ON2  1  0.326959829558  0.163176000000
 CN7E   ON3  1  0.320723538531  0.144938011577
 CN7E   ON4  1  0.326959829558  0.163176000000
 CN7E   ON5  1  0.326959829558  0.163176000000
 CN7E   ON6  1  0.326959829558  0.163176000000
 CN7E  ON6B  1  0.326959829558  0.163176000000
 CN7E   CN1  1  0.338541512893  0.132309697301
 CN7E  CN1T  1  0.338541512893  0.132309697301
 CN7E   CN2  1  0.338541512893  0.132309697301
 CN7E   CN3  1  0.338541512893  0.125520000000
 CN7E  CN3T  1  0.338541512893  0.125520000000
 CN7E   CN4  1  0.338541512893  0.114583559030
 CN7E   CN5  1  0.338541512893  0.114583559030
 CN7E  CN5G  1  0.338541512893  0.114583559030
 CN7E   CN7  1  0.338541512893  0.041840000000
 CN7E  CN7B  1  0.338541512893  0.041840000000
 CN7E   CN8  1  0.338541512893  0.041840000000
 CN7E  CN8B  1  0.338541512893  0.041840000000
 CN7E   CN9  1  0.338541512893  0.041840000000
 CN7E     P  1  0.360813980847  0.320014464673
 CN7E    P2  1  0.360813980847  0.320014464673
 CN7E    P3  1  0.360813980847  0.320014464673
 CN7E    P4  1  0.360813980847  0.320014464673
 CN7E   HOL  1  0.189271432669  0.089736802707
 CN7E  HAL1  1  0.286869387241  0.062058748940
 CN7E  HAL2  1  0.288651184677  0.070011711020
 CN7E  HAL3  1  0.288651184677  0.064818249282
 CN7E   HBL  1  0.286869387241  0.062058748940
 CN7E   HCL  1  0.189271432669  0.089736802707
 CN7E    HL  1  0.231633666716  0.089736802707
 CN7E  HEL1  1  0.280633096214  0.073666921749
 CN7E  HEL2  1  0.281523994932  0.067464972838
 CN7E    CL  1  0.347450500075  0.110698234855
 CN7E   CCL  1  0.347450500075  0.110698234855
 CN7E  CTL1  1  0.338541512893  0.041840000000
 CN7E  CTL2  1  0.338541512893  0.041840000000
 CN7E  CTL3  1  0.338541512893  0.041840000000
 CN7E  CTL5  1  0.338541512893  0.041840000000
 CN7E  CEL1  1  0.355468588538  0.109105371453
 CN7E  CEL2  1  0.354577689820  0.105847757841
 CN7E  CRL1  1  0.338541512893  0.041840000000
 CN7E  CRL2  1  0.338541512893  0.041840000000
 CN7E   OBL  1  0.293996576986  0.144938011577
 CN7E   OCL  1  0.320723538531  0.144938011577
 CN7E   O2L  1  0.320723538531  0.144938011577
 CN7E   OHL  1  0.326959829558  0.163176000000
 CN7E   OSL  1  0.316269044940  0.132309697301
 CN7E  OSLP  1  0.316269044940  0.132309697301
 CN7E  NH3L  1  0.334087019303  0.187114168357
 CN7E   NTL  1  0.334087019303  0.187114168357
 CN7E    SL  1  0.356359487256  0.286840588481
 CN7E    PL  1  0.360813980847  0.320014464673
 CN7E HCA1A  1  0.288651184677  0.088756043175
 CN7E HCA2A  1  0.288651184677  0.078275472531
 CN7E HCA3A  1  0.288651184677  0.064818249282
 CN7E CC30A  1  0.338541512893  0.041840000000
 CN7E CC31A  1  0.338541512893  0.041840000000
 CN7E CC32A  1  0.338541512893  0.041840000000
 CN7E CC33A  1  0.338541512893  0.041840000000
 CN7E CC326A  1  0.338541512893  0.041840000000
 CN7E HCA25A  1  0.285087589805  0.078275472531
 CN7E CC325A  1  0.338541512893  0.041840000000
 CN7E CC325B  1  0.338541512893  0.041840000000
 CN7E OC305A  1  0.316269044940  0.132309697301
 CN7E OC30A  1  0.316269044940  0.132309697301
 CN7E  HSIO  1  0.189271432669  0.089736802707
 CN7E  HSIA  1  0.286869387241  0.062058748940
 CN7E   HAL  1  0.286869387241  0.062058748940
 CN7E    AL  1  0.365268474438  0.337324864189
 CN7E    SI  1  0.365268474438  0.324091246411
 CN7E  SIH3  1  0.365268474438  0.324091246411
 CN7E  OSIH  1  0.326959829558  0.163176000000
 CN7E  OSIE  1  0.326959829558  0.163176000000
 CN7E  OSIA  1  0.326959829558  0.163176000000
 CN7E   OAL  1  0.326959829558  0.163176000000
 CN7E    HT  1  0.189271432669  0.089736802707
 CN7E    OT  1  0.326799467788  0.163176000000
 CN7E   DUM  1  0.169270756447  0.000000000000
 CN7E    CM  1  0.356359487256  0.138767581228
 CN7E   CPA  1  0.329632525712  0.125520000000
 CN7E   CPB  1  0.329632525712  0.125520000000
 CN7E   CPM  1  0.329632525712  0.125520000000
 CN7E   CST  1  0.308518226092  0.100764063435
 CN7E  CT1X  1  0.338541512893  0.041840000000
 CN7E  CT2X  1  0.338541512893  0.041840000000
 CN7E  CT3X  1  0.338541512893  0.041840000000
 CN7E    HB  1  0.286869387241  0.062058748940
 CN7E   NPH  1  0.334087019303  0.187114168357
 CN7E    OM  1  0.320723538531  0.144938011577
 CN7E   OST  1  0.320010819556  0.169954883425
 CN7E   POT  1  0.326403017859  0.123410269913
 CN7E   CAL  1  0.291056611216  0.144938011577
 CN7E    MG  1  0.274842254546  0.051243325419
 CN7E   CES  1  0.356359487256  0.182376331798
 CN7E    ZN  1  0.266378716724  0.209200000000
 CN7E    FE  1  0.227179173126  0.000000000000
 CN7E    HE  1  0.301123766731  0.061020452073
 CN7E    NE  1  0.305578260322  0.122698965603
 CN7E  CLAL  1  0.339272049842  0.072469005789
 CN7E    AG  1  0.300901042052  0.893457908130
 CN7E    AU  1  0.300722862308  0.962320000000
 CN7E    CU  1  0.285800308779  0.908997471504
 CN7E    NI  1  0.282949432881  0.994525446633
 CN7E    PB  1  0.328073452955  0.716185437439
 CN7E    PD  1  0.294842930769  1.037598257516
 CN7E    PT  1  0.296001099102  1.168527606863
 CN7E   CAP  1  0.346773417049  0.110698234855
 CN7E    FA  1  0.320723538531  0.144938011577
 CN7E    CN  1  0.325178032121  0.187114168357
 CN7E    NC  1  0.334087019303  0.324091246411
 CN7E   OCA  1  0.293996576986  0.144938011577
 CN7E   COA  1  0.347450500075  0.138767581228
 CN7E   CF1  1  0.338541512893  0.102486650838
 CN7E   CF2  1  0.351904993665  0.085746484010
 CN7E   CF3  1  0.374177461619  0.059170695450
 CN7E   HF1  1  0.286869387241  0.070011711020
 CN7E   HF2  1  0.285087589805  0.072469005789
 CN7E    F1  1  0.314487247504  0.153729976257
 CN7E    F2  1  0.314487247504  0.135577095411
 CN7E    F3  1  0.311814551349  0.130309939452
 CN7E    OX  1  0.320723538531  0.144938011577
 CN7E    HX  1  0.189271432669  0.089736802707
 CN7E  HPER  1  0.189271432669  0.089736802707
 CN7E  OPER  1  0.318427692534  0.188901923946
 CN7E   LIT  1  0.284864865125  0.020196198771
 CN7E   RUB  1  0.338541512893  0.162045623205
 CN7E   BAR  1  0.337650614175  0.162045623205
 CN7E   CAD  1  0.290165712498  0.144938011577
 CN7E  ON2B  1  0.326959829558  0.163176000000
 CN7E    SP  1  0.365268474438  0.280671252536
 CN7E   HNP  1  0.290272620344  0.072469005789
 CN7E  HNE1  1  0.280633096214  0.073666921749
 CN7E  HNE2  1  0.281523994932  0.067464972838
 CN7E  CN3D  1  0.338541512893  0.125520000000
 CN7E  CNE1  1  0.355468588538  0.109105371453
 CN7E  CNE2  1  0.354577689820  0.105847757841
 CN7E   CNA  1  0.346773417049  0.110698234855
 CN7E  CNA2  1  0.338541512893  0.110698234855
 CN7E   CNG  1  0.347450500075  0.138767581228
 CN7E  NN1C  1  0.334087019303  0.187114168357
 CN7E  NN2C  1  0.334087019303  0.187114168357
 CN7E  NN3I  1  0.334087019303  0.187114168357
 CN7E   NNG  1  0.334087019303  0.187114168357
 CN7E   FNA  1  0.320723538531  0.144938011577
 CN7E  ON2M  1  0.316269044940  0.132309697301
 CN7E   CN6  1  0.338541512893  0.041840000000
 CN7E  CN7E  1  0.338541512893  0.041840000000
 CN7E  CT2P  1  0.338541512893  0.041840000000
 CN7E  CTD1  1  0.338541512893  0.041840000000
 CN7E  CPD1  1  0.338541512893  0.041840000000
 CN7E  CC1A  1  0.355468588538  0.109105371453
 CN7E  CC1B  1  0.355468588538  0.109105371453
 CN7E   CC2  1  0.354577689820  0.105847757841
 CN7E   NS1  1  0.334087019303  0.187114168357
 CN7E   NS2  1  0.334087019303  0.187114168357
 CN7E   NHL  1  0.307360057758  0.187114168357
 CN7E  CTO1  1  0.338541512893  0.041840000000
 CN7E  CEL3  1  0.355468588538  0.109105371453
 CN7E  CTO2  1  0.338541512893  0.041840000000
 CN7E  HN3B  1  0.249451641079  0.089736802707
 CN7E  CN1A  1  0.347450500075  0.110698234855
 CN7E  CN3A  1  0.329632525712  0.177512086349
 CN7E  CN3B  1  0.329632525712  0.177512086349
 CN7E  CN3C  1  0.329632525712  0.177512086349
 CT2P     C  1  0.347450500075  0.138767581228
 CT2P    CA  1  0.346773417049  0.110698234855
 CT2P    CC  1  0.347450500075  0.110698234855
 CT2P    CD  1  0.347450500075  0.110698234855
 CT2P   CE1  1  0.355468588538  0.109105371453
 CT2P   CE2  1  0.354577689820  0.105847757841
 CT2P   CP1  1  0.338541512893  0.041840000000
 CT2P   CP2  1  0.338541512893  0.041840000000
 CT2P   CP3  1  0.338541512893  0.041840000000
 CT2P  CPH1  1  0.329632525712  0.093557084179
 CT2P  CPH2  1  0.329632525712  0.093557084179
 CT2P    CS  1  0.365268474438  0.138767581228
 CT2P   CPT  1  0.334977918021  0.131646486622
 CT2P    CY  1  0.346559601357  0.113045454929
 CT2P   CAI  1  0.346559601357  0.113045454929
 CT2P    CT  1  0.338541512893  0.041840000000
 CT2P   CT1  1  0.338541512893  0.041840000000
 CT2P   CT2  1  0.338541512893  0.041840000000
 CT2P  CT2A  1  0.338541512893  0.041840000000
 CT2P   CT3  1  0.338541512893  0.041840000000
 CT2P    C3  1  0.371950214824  0.059170695450
 CT2P     H  1  0.189271432669  0.089736802707
 CT2P    HA  1  0.286869387241  0.062058748940
 CT2P   HB1  1  0.286869387241  0.062058748940
 CT2P   HB2  1  0.288651184677  0.070011711020
 CT2P   HE1  1  0.280633096214  0.073666921749
 CT2P   HE2  1  0.281523994932  0.067464972838
 CT2P    HC  1  0.189271432669  0.089736802707
 CT2P    HP  1  0.290272620344  0.072469005789
 CT2P   HR1  1  0.249451641079  0.089736802707
 CT2P   HR2  1  0.231633666716  0.089736802707
 CT2P   HR3  1  0.300054688270  0.036952087465
 CT2P    HS  1  0.209361198763  0.132309697301
 CT2P   HA1  1  0.288651184677  0.088756043175
 CT2P   HA2  1  0.288651184677  0.077149148019
 CT2P   HA3  1  0.288651184677  0.064818249282
 CT2P     N  1  0.334087019303  0.004184000000
 CT2P   NC2  1  0.334087019303  0.187114168357
 CT2P   NH1  1  0.307360057758  0.187114168357
 CT2P   NH2  1  0.334087019303  0.187114168357
 CT2P   NH3  1  0.334087019303  0.187114168357
 CT2P    NP  1  0.334087019303  0.187114168357
 CT2P   NR1  1  0.334087019303  0.187114168357
 CT2P   NR2  1  0.334087019303  0.187114168357
 CT2P   NR3  1  0.334087019303  0.187114168357
 CT2P    NY  1  0.334087019303  0.187114168357
 CT2P     O  1  0.293996576986  0.144938011577
 CT2P    OB  1  0.293996576986  0.144938011577
 CT2P    OC  1  0.320723538531  0.144938011577
 CT2P   OH1  1  0.326959829558  0.163176000000
 CT2P    OS  1  0.326959829558  0.163176000000
 CT2P     S  1  0.347450500075  0.280671252536
 CT2P    SM  1  0.345223253279  0.257919081884
 CT2P    SS  1  0.365268474438  0.286840588481
 CT2P  HGA1  1  0.288651184677  0.088756043175
 CT2P  HGA2  1  0.288651184677  0.078275472531
 CT2P  HGA3  1  0.288651184677  0.064818249282
 CT2P  HGA4  1  0.280633096214  0.073666921749
 CT2P  HGA5  1  0.281523994932  0.067464972838
 CT2P  HGA6  1  0.286869387241  0.070011711020
 CT2P  HGA7  1  0.285087589805  0.072469005789
 CT2P HGAAM0  1  0.283305792369  0.070011711020
 CT2P HGAAM1  1  0.283305792369  0.070011711020
 CT2P HGAAM2  1  0.281523994932  0.083680000000
 CT2P  HGP1  1  0.189271432669  0.089736802707
 CT2P  HGP2  1  0.189271432669  0.089736802707
 CT2P  HGP3  1  0.209361198763  0.132309697301
 CT2P  HGP4  1  0.189271432669  0.089736802707
 CT2P  HGP5  1  0.231633666716  0.089736802707
 CT2P HGPAM1  1  0.247224394284  0.039692909190
 CT2P HGPAM2  1  0.247224394284  0.041840000000
 CT2P HGPAM3  1  0.246778944925  0.045833423612
 CT2P HGR51  1  0.290272620344  0.072469005789
 CT2P HGR52  1  0.249451641079  0.089736802707
 CT2P HGR53  1  0.231633666716  0.089736802707
 CT2P HGR61  1  0.290272620344  0.072469005789
 CT2P HGR62  1  0.267269615442  0.089736802707
 CT2P HGR63  1  0.249451641079  0.089736802707
 CT2P HGR71  1  0.290272620344  0.072469005789
 CT2P HGTIP3  1  0.189271432669  0.089736802707
 CT2P CG1T1  1  0.333196120584  0.170981810495
 CT2P CG1T2  1  0.346782326036  0.134409982486
 CT2P CG1N1  1  0.335868816739  0.177512086349
 CT2P CG2D1  1  0.355468588538  0.109105371453
 CT2P CG2D2  1  0.354577689820  0.105847757841
 CT2P CG2D1O  1  0.355468588538  0.109105371453
 CT2P CG2D2O  1  0.355468588538  0.109105371453
 CT2P CG2DC1  1  0.355468588538  0.109105371453
 CT2P CG2DC2  1  0.355468588538  0.109105371453
 CT2P CG2DC3  1  0.354577689820  0.105847757841
 CT2P CG2N1  1  0.347450500075  0.138767581228
 CT2P CG2N2  1  0.347450500075  0.138767581228
 CT2P CG2O1  1  0.347450500075  0.138767581228
 CT2P CG2O2  1  0.320723538531  0.130979917850
 CT2P CG2O3  1  0.347450500075  0.110698234855
 CT2P CG2O4  1  0.329632525712  0.102486650838
 CT2P CG2O5  1  0.347450500075  0.125520000000
 CT2P CG2O6  1  0.347450500075  0.110698234855
 CT2P CG2O7  1  0.308518226092  0.100764063435
 CT2P CG2R51  1  0.356359487256  0.093557084179
 CT2P CG2R52  1  0.365268474438  0.059170695450
 CT2P CG2R53  1  0.365268474438  0.059170695450
 CT2P CG2R57  1  0.356359487256  0.093557084179
 CT2P CG25C1  1  0.355468588538  0.109105371453
 CT2P CG25C2  1  0.355468588538  0.109105371453
 CT2P CG251O  1  0.355468588538  0.109105371453
 CT2P CG252O  1  0.355468588538  0.109105371453
 CT2P CG2R61  1  0.346773417049  0.110698234855
 CT2P CG2R62  1  0.338541512893  0.125520000000
 CT2P CG2R63  1  0.338541512893  0.132309697301
 CT2P CG2R64  1  0.356359487256  0.083680000000
 CT2P CG2R66  1  0.338541512893  0.110698234855
 CT2P CG2R67  1  0.346773417049  0.110698234855
 CT2P CG2RC0  1  0.334977918021  0.131646486622
 CT2P CG2R71  1  0.346987232741  0.108300154755
 CT2P CG2RC7  1  0.334977918021  0.131646486622
 CT2P CG301  1  0.338541512893  0.041840000000
 CT2P CG302  1  0.374177461619  0.059170695450
 CT2P CG311  1  0.338541512893  0.041840000000
 CT2P CG312  1  0.351904993665  0.085746484010
 CT2P CG314  1  0.338541512893  0.041840000000
 CT2P CG321  1  0.338541512893  0.041840000000
 CT2P CG322  1  0.338541512893  0.102486650838
 CT2P CG323  1  0.365268474438  0.138767581228
 CT2P CG324  1  0.338541512893  0.041840000000
 CT2P CG331  1  0.338541512893  0.041840000000
 CT2P CG334  1  0.338541512893  0.041840000000
 CT2P CG3C50  1  0.338541512893  0.041840000000
 CT2P CG3C51  1  0.338541512893  0.041840000000
 CT2P CG3C52  1  0.338541512893  0.041840000000
 CT2P CG3C53  1  0.338541512893  0.041840000000
 CT2P CG3C54  1  0.338541512893  0.041840000000
 CT2P CG3C31  1  0.338541512893  0.041840000000
 CT2P CG3C41  1  0.338541512893  0.041840000000
 CT2P CG3RC1  1  0.338541512893  0.041840000000
 CT2P CG3AM0  1  0.344777803920  0.110698234855
 CT2P CG3AM1  1  0.345668702638  0.116852760686
 CT2P CG3AM2  1  0.346559601357  0.118341390899
 CT2P NG1T1  1  0.328741626994  0.177512086349
 CT2P NG2D1  1  0.334087019303  0.187114168357
 CT2P NG2S0  1  0.334087019303  0.004184000000
 CT2P NG2S1  1  0.307360057758  0.187114168357
 CT2P NG2S2  1  0.334087019303  0.187114168357
 CT2P NG2S3  1  0.334087019303  0.187114168357
 CT2P NG2O1  1  0.334087019303  0.187114168357
 CT2P NG2P1  1  0.334087019303  0.187114168357
 CT2P NG2R43  1  0.334087019303  0.187114168357
 CT2P NG2R50  1  0.334087019303  0.187114168357
 CT2P NG2R51  1  0.334087019303  0.187114168357
 CT2P NG2R52  1  0.334087019303  0.187114168357
 CT2P NG2R53  1  0.334087019303  0.187114168357
 CT2P NG2R57  1  0.334087019303  0.187114168357
 CT2P NG2R60  1  0.337650614175  0.102486650838
 CT2P NG2R61  1  0.334087019303  0.187114168357
 CT2P NG2R62  1  0.352795892384  0.093557084179
 CT2P NG2R67  1  0.334087019303  0.187114168357
 CT2P NG2RC0  1  0.334087019303  0.187114168357
 CT2P NG301  1  0.347450500075  0.078275472531
 CT2P NG311  1  0.347450500075  0.088756043175
 CT2P NG321  1  0.346559601357  0.102486650838
 CT2P NG331  1  0.345668702638  0.110698234855
 CT2P NG3C51  1  0.334087019303  0.187114168357
 CT2P NG3N1  1  0.351904993665  0.102486650838
 CT2P NG3P0  1  0.334087019303  0.187114168357
 CT2P NG3P1  1  0.334087019303  0.187114168357
 CT2P NG3P2  1  0.334087019303  0.187114168357
 CT2P NG3P3  1  0.334087019303  0.187114168357
 CT2P OG2D1  1  0.293996576986  0.144938011577
 CT2P OG2D2  1  0.320723538531  0.144938011577
 CT2P OG2D3  1  0.293996576986  0.144938011577
 CT2P OG2D4  1  0.320723538531  0.144938011577
 CT2P OG2D5  1  0.320010819556  0.169954883425
 CT2P OG2N1  1  0.320723538531  0.144938011577
 CT2P OG2P1  1  0.320723538531  0.144938011577
 CT2P OG2R50  1  0.320723538531  0.144938011577
 CT2P OG3R60  1  0.316269044940  0.132309697301
 CT2P OG301  1  0.316269044940  0.132309697301
 CT2P OG302  1  0.316269044940  0.132309697301
 CT2P OG303  1  0.316269044940  0.132309697301
 CT2P OG304  1  0.316269044940  0.132309697301
 CT2P OG311  1  0.326514380198  0.183381431383
 CT2P OG312  1  0.325178032121  0.144938011577
 CT2P OG3C31  1  0.316269044940  0.132309697301
 CT2P OG3C51  1  0.316269044940  0.132309697301
 CT2P OG3C61  1  0.316269044940  0.132309697301
 CT2P OGTIP3  1  0.326799467788  0.163176000000
 CT2P SG2D1  1  0.351904993665  0.314496560236
 CT2P SG2R50  1  0.347450500075  0.280671252536
 CT2P SG311  1  0.347450500075  0.280671252536
 CT2P SG301  1  0.345223253279  0.257919081884
 CT2P SG302  1  0.365268474438  0.286840588481
 CT2P SG3O1  1  0.356359487256  0.286840588481
 CT2P SG3O2  1  0.347450500075  0.247528778125
 CT2P SG3O3  1  0.347450500075  0.247528778125
 CT2P  FGA1  1  0.314487247504  0.153729976257
 CT2P  FGA2  1  0.314487247504  0.135577095411
 CT2P  FGA3  1  0.311814551349  0.130309939452
 CT2P  FGP1  1  0.311814551349  0.130309939452
 CT2P  FGR1  1  0.320723538531  0.144938011577
 CT2P CLGA1  1  0.339432411611  0.245040988571
 CT2P CLGA3  1  0.339432411611  0.232955260941
 CT2P BRGA1  1  0.344777803920  0.289876023155
 CT2P BRGA2  1  0.351904993665  0.304599797767
 CT2P BRGA3  1  0.347450500075  0.307459952514
 CT2P   SOD  1  0.294954293108  0.090610410351
 CT2P   CLA  1  0.371504765465  0.162045623205
 CT2P   PG0  1  0.360813980847  0.320014464673
 CT2P   PG1  1  0.360813980847  0.320014464673
 CT2P   PG2  1  0.360813980847  0.320014464673
 CT2P  ALG1  1  0.347450500075  0.337324864189
 CT2P   LPH  1  0.169270756447  0.000000000000
 CT2P CLGR1  1  0.334977918021  0.200657590935
 CT2P BRGR1  1  0.345668702638  0.236682781799
 CT2P  IGR1  1  0.368832069310  0.301712530731
 CT2P SG2P1  1  0.355798221064  0.332305491450
 CT2P OG2S1  1  0.318906105146  0.157831660601
 CT2P SG2P2  1  0.352314807076  0.329421919951
 CT2P SEGD1  1  0.363041227642  0.330244580395
 CT2P BG201  1  0.396449929572  0.081561175077
 CT2P CC301  1  0.338541512893  0.041840000000
 CT2P CC3062  1  0.338541512893  0.041840000000
 CT2P CC311  1  0.338541512893  0.041840000000
 CT2P CC3161  1  0.338541512893  0.041840000000
 CT2P CC3162  1  0.338541512893  0.041840000000
 CT2P CC3163  1  0.338541512893  0.041840000000
 CT2P CC321  1  0.338541512893  0.041840000000
 CT2P CC3261  1  0.338541512893  0.041840000000
 CT2P CC3263  1  0.338541512893  0.041840000000
 CT2P CC331  1  0.338541512893  0.041840000000
 CT2P CC2O1  1  0.347450500075  0.138767581228
 CT2P CC2O2  1  0.347450500075  0.110698234855
 CT2P CC2O3  1  0.347450500075  0.125520000000
 CT2P CC2O4  1  0.329632525712  0.102486650838
 CT2P CC2O5  1  0.320723538531  0.130979917850
 CT2P OC2D1  1  0.293996576986  0.144938011577
 CT2P OC2D2  1  0.320723538531  0.144938011577
 CT2P OC2D3  1  0.293996576986  0.144938011577
 CT2P OC2D4  1  0.293996576986  0.144938011577
 CT2P OC3C61  1  0.316269044940  0.132309697301
 CT2P OC311  1  0.326514380198  0.183381431383
 CT2P NC2D1  1  0.307360057758  0.187114168357
 CT2P  HCP1  1  0.189271432669  0.089736802707
 CT2P  HCA1  1  0.288651184677  0.088756043175
 CT2P  HCA2  1  0.288651184677  0.078275472531
 CT2P  HCA3  1  0.288651184677  0.064818249282
 CT2P CC312  1  0.338541512893  0.041840000000
 CT2P CC322  1  0.338541512893  0.041840000000
 CT2P  HCR1  1  0.240542653898  0.089736802707
 CT2P HCA3M  1  0.288651184677  0.064818249282
 CT2P CC321C  1  0.338541512893  0.041840000000
 CT2P CC321D  1  0.338541512893  0.041840000000
 CT2P CC311C  1  0.338541512893  0.041840000000
 CT2P CC311D  1  0.338541512893  0.041840000000
 CT2P OC301  1  0.316269044940  0.132309697301
 CT2P OC302  1  0.316269044940  0.132309697301
 CT2P HCP1M  1  0.189271432669  0.089736802707
 CT2P OC311M  1  0.326514380198  0.183381431383
 CT2P OC3C5M  1  0.316269044940  0.132309697301
 CT2P CC322C  1  0.338541512893  0.041840000000
 CT2P HCA2C2  1  0.285087589805  0.078275472531
 CT2P CC312C  1  0.338541512893  0.041840000000
 CT2P HCA1C2  1  0.288651184677  0.088756043175
 CT2P OC3C51  1  0.316269044940  0.132309697301
 CT2P CC3152  1  0.338541512893  0.041840000000
 CT2P CC3051  1  0.338541512893  0.041840000000
 CT2P CC3251  1  0.338541512893  0.041840000000
 CT2P CC3151  1  0.338541512893  0.041840000000
 CT2P CC3153  1  0.338541512893  0.041840000000
 CT2P OC2DP  1  0.320723538531  0.144938011577
 CT2P OC312  1  0.326959829558  0.163176000000
 CT2P OC30P  1  0.326959829558  0.163176000000
 CT2P    PC  1  0.360813980847  0.320014464673
 CT2P    SC  1  0.356359487256  0.286840588481
 CT2P CC312D  1  0.338541512893  0.041840000000
 CT2P OC303  1  0.316269044940  0.132309697301
 CT2P NC311  1  0.347450500075  0.088756043175
 CT2P   HN1  1  0.189271432669  0.089736802707
 CT2P   HN2  1  0.189271432669  0.089736802707
 CT2P   HN3  1  0.267269615442  0.089736802707
 CT2P   HN4  1  0.189271432669  0.089736802707
 CT2P   HN5  1  0.189271432669  0.089736802707
 CT2P   HN6  1  0.286869387241  0.062058748940
 CT2P   HN7  1  0.286869387241  0.062058748940
 CT2P   HN8  1  0.288651184677  0.070011711020
 CT2P   HN9  1  0.288651184677  0.064818249282
 CT2P   NN1  1  0.334087019303  0.187114168357
 CT2P   NN2  1  0.334087019303  0.187114168357
 CT2P  NN2B  1  0.334087019303  0.187114168357
 CT2P  NN2G  1  0.334087019303  0.187114168357
 CT2P  NN2U  1  0.334087019303  0.187114168357
 CT2P   NN3  1  0.334087019303  0.187114168357
 CT2P  NN3A  1  0.334087019303  0.187114168357
 CT2P  NN3G  1  0.334087019303  0.187114168357
 CT2P   NN4  1  0.334087019303  0.187114168357
 CT2P   NN6  1  0.334087019303  0.187114168357
 CT2P   ON1  1  0.320723538531  0.144938011577
 CT2P  ON1C  1  0.320723538531  0.144938011577
 CT2P   ON2  1  0.326959829558  0.163176000000
 CT2P   ON3  1  0.320723538531  0.144938011577
 CT2P   ON4  1  0.326959829558  0.163176000000
 CT2P   ON5  1  0.326959829558  0.163176000000
 CT2P   ON6  1  0.326959829558  0.163176000000
 CT2P  ON6B  1  0.326959829558  0.163176000000
 CT2P   CN1  1  0.338541512893  0.132309697301
 CT2P  CN1T  1  0.338541512893  0.132309697301
 CT2P   CN2  1  0.338541512893  0.132309697301
 CT2P   CN3  1  0.338541512893  0.125520000000
 CT2P  CN3T  1  0.338541512893  0.125520000000
 CT2P   CN4  1  0.338541512893  0.114583559030
 CT2P   CN5  1  0.338541512893  0.114583559030
 CT2P  CN5G  1  0.338541512893  0.114583559030
 CT2P   CN7  1  0.338541512893  0.041840000000
 CT2P  CN7B  1  0.338541512893  0.041840000000
 CT2P   CN8  1  0.338541512893  0.041840000000
 CT2P  CN8B  1  0.338541512893  0.041840000000
 CT2P   CN9  1  0.338541512893  0.041840000000
 CT2P     P  1  0.360813980847  0.320014464673
 CT2P    P2  1  0.360813980847  0.320014464673
 CT2P    P3  1  0.360813980847  0.320014464673
 CT2P    P4  1  0.360813980847  0.320014464673
 CT2P   HOL  1  0.189271432669  0.089736802707
 CT2P  HAL1  1  0.286869387241  0.062058748940
 CT2P  HAL2  1  0.288651184677  0.070011711020
 CT2P  HAL3  1  0.288651184677  0.064818249282
 CT2P   HBL  1  0.286869387241  0.062058748940
 CT2P   HCL  1  0.189271432669  0.089736802707
 CT2P    HL  1  0.231633666716  0.089736802707
 CT2P  HEL1  1  0.280633096214  0.073666921749
 CT2P  HEL2  1  0.281523994932  0.067464972838
 CT2P    CL  1  0.347450500075  0.110698234855
 CT2P   CCL  1  0.347450500075  0.110698234855
 CT2P  CTL1  1  0.338541512893  0.041840000000
 CT2P  CTL2  1  0.338541512893  0.041840000000
 CT2P  CTL3  1  0.338541512893  0.041840000000
 CT2P  CTL5  1  0.338541512893  0.041840000000
 CT2P  CEL1  1  0.355468588538  0.109105371453
 CT2P  CEL2  1  0.354577689820  0.105847757841
 CT2P  CRL1  1  0.338541512893  0.041840000000
 CT2P  CRL2  1  0.338541512893  0.041840000000
 CT2P   OBL  1  0.293996576986  0.144938011577
 CT2P   OCL  1  0.320723538531  0.144938011577
 CT2P   O2L  1  0.320723538531  0.144938011577
 CT2P   OHL  1  0.326959829558  0.163176000000
 CT2P   OSL  1  0.316269044940  0.132309697301
 CT2P  OSLP  1  0.316269044940  0.132309697301
 CT2P  NH3L  1  0.334087019303  0.187114168357
 CT2P   NTL  1  0.334087019303  0.187114168357
 CT2P    SL  1  0.356359487256  0.286840588481
 CT2P    PL  1  0.360813980847  0.320014464673
 CT2P HCA1A  1  0.288651184677  0.088756043175
 CT2P HCA2A  1  0.288651184677  0.078275472531
 CT2P HCA3A  1  0.288651184677  0.064818249282
 CT2P CC30A  1  0.338541512893  0.041840000000
 CT2P CC31A  1  0.338541512893  0.041840000000
 CT2P CC32A  1  0.338541512893  0.041840000000
 CT2P CC33A  1  0.338541512893  0.041840000000
 CT2P CC326A  1  0.338541512893  0.041840000000
 CT2P HCA25A  1  0.285087589805  0.078275472531
 CT2P CC325A  1  0.338541512893  0.041840000000
 CT2P CC325B  1  0.338541512893  0.041840000000
 CT2P OC305A  1  0.316269044940  0.132309697301
 CT2P OC30A  1  0.316269044940  0.132309697301
 CT2P  HSIO  1  0.189271432669  0.089736802707
 CT2P  HSIA  1  0.286869387241  0.062058748940
 CT2P   HAL  1  0.286869387241  0.062058748940
 CT2P    AL  1  0.365268474438  0.337324864189
 CT2P    SI  1  0.365268474438  0.324091246411
 CT2P  SIH3  1  0.365268474438  0.324091246411
 CT2P  OSIH  1  0.326959829558  0.163176000000
 CT2P  OSIE  1  0.326959829558  0.163176000000
 CT2P  OSIA  1  0.326959829558  0.163176000000
 CT2P   OAL  1  0.326959829558  0.163176000000
 CT2P    HT  1  0.189271432669  0.089736802707
 CT2P    OT  1  0.326799467788  0.163176000000
 CT2P   DUM  1  0.169270756447  0.000000000000
 CT2P    CM  1  0.356359487256  0.138767581228
 CT2P   CPA  1  0.329632525712  0.125520000000
 CT2P   CPB  1  0.329632525712  0.125520000000
 CT2P   CPM  1  0.329632525712  0.125520000000
 CT2P   CST  1  0.308518226092  0.100764063435
 CT2P  CT1X  1  0.338541512893  0.041840000000
 CT2P  CT2X  1  0.338541512893  0.041840000000
 CT2P  CT3X  1  0.338541512893  0.041840000000
 CT2P    HB  1  0.286869387241  0.062058748940
 CT2P   NPH  1  0.334087019303  0.187114168357
 CT2P    OM  1  0.320723538531  0.144938011577
 CT2P   OST  1  0.320010819556  0.169954883425
 CT2P   POT  1  0.326403017859  0.123410269913
 CT2P   CAL  1  0.291056611216  0.144938011577
 CT2P    MG  1  0.274842254546  0.051243325419
 CT2P   CES  1  0.356359487256  0.182376331798
 CT2P    ZN  1  0.266378716724  0.209200000000
 CT2P    FE  1  0.227179173126  0.000000000000
 CT2P    HE  1  0.301123766731  0.061020452073
 CT2P    NE  1  0.305578260322  0.122698965603
 CT2P  CLAL  1  0.339272049842  0.072469005789
 CT2P    AG  1  0.300901042052  0.893457908130
 CT2P    AU  1  0.300722862308  0.962320000000
 CT2P    CU  1  0.285800308779  0.908997471504
 CT2P    NI  1  0.282949432881  0.994525446633
 CT2P    PB  1  0.328073452955  0.716185437439
 CT2P    PD  1  0.294842930769  1.037598257516
 CT2P    PT  1  0.296001099102  1.168527606863
 CT2P   CAP  1  0.346773417049  0.110698234855
 CT2P    FA  1  0.320723538531  0.144938011577
 CT2P    CN  1  0.325178032121  0.187114168357
 CT2P    NC  1  0.334087019303  0.324091246411
 CT2P   OCA  1  0.293996576986  0.144938011577
 CT2P   COA  1  0.347450500075  0.138767581228
 CT2P   CF1  1  0.338541512893  0.102486650838
 CT2P   CF2  1  0.351904993665  0.085746484010
 CT2P   CF3  1  0.374177461619  0.059170695450
 CT2P   HF1  1  0.286869387241  0.070011711020
 CT2P   HF2  1  0.285087589805  0.072469005789
 CT2P    F1  1  0.314487247504  0.153729976257
 CT2P    F2  1  0.314487247504  0.135577095411
 CT2P    F3  1  0.311814551349  0.130309939452
 CT2P    OX  1  0.320723538531  0.144938011577
 CT2P    HX  1  0.189271432669  0.089736802707
 CT2P  HPER  1  0.189271432669  0.089736802707
 CT2P  OPER  1  0.318427692534  0.188901923946
 CT2P   LIT  1  0.284864865125  0.020196198771
 CT2P   RUB  1  0.338541512893  0.162045623205
 CT2P   BAR  1  0.337650614175  0.162045623205
 CT2P   CAD  1  0.290165712498  0.144938011577
 CT2P  ON2B  1  0.326959829558  0.163176000000
 CT2P    SP  1  0.365268474438  0.280671252536
 CT2P   HNP  1  0.290272620344  0.072469005789
 CT2P  HNE1  1  0.280633096214  0.073666921749
 CT2P  HNE2  1  0.281523994932  0.067464972838
 CT2P  CN3D  1  0.338541512893  0.125520000000
 CT2P  CNE1  1  0.355468588538  0.109105371453
 CT2P  CNE2  1  0.354577689820  0.105847757841
 CT2P   CNA  1  0.346773417049  0.110698234855
 CT2P  CNA2  1  0.338541512893  0.110698234855
 CT2P   CNG  1  0.347450500075  0.138767581228
 CT2P  NN1C  1  0.334087019303  0.187114168357
 CT2P  NN2C  1  0.334087019303  0.187114168357
 CT2P  NN3I  1  0.334087019303  0.187114168357
 CT2P   NNG  1  0.334087019303  0.187114168357
 CT2P   FNA  1  0.320723538531  0.144938011577
 CT2P  ON2M  1  0.316269044940  0.132309697301
 CT2P   CN6  1  0.338541512893  0.041840000000
 CT2P  CN7E  1  0.338541512893  0.041840000000
 CT2P  CT2P  1  0.338541512893  0.041840000000
 CT2P  CTD1  1  0.338541512893  0.041840000000
 CT2P  CPD1  1  0.338541512893  0.041840000000
 CT2P  CC1A  1  0.355468588538  0.109105371453
 CT2P  CC1B  1  0.355468588538  0.109105371453
 CT2P   CC2  1  0.354577689820  0.105847757841
 CT2P   NS1  1  0.334087019303  0.187114168357
 CT2P   NS2  1  0.334087019303  0.187114168357
 CT2P   NHL  1  0.307360057758  0.187114168357
 CT2P  CTO1  1  0.338541512893  0.041840000000
 CT2P  CEL3  1  0.355468588538  0.109105371453
 CT2P  CTO2  1  0.338541512893  0.041840000000
 CT2P  HN3B  1  0.249451641079  0.089736802707
 CT2P  CN1A  1  0.347450500075  0.110698234855
 CT2P  CN3A  1  0.329632525712  0.177512086349
 CT2P  CN3B  1  0.329632525712  0.177512086349
 CT2P  CN3C  1  0.329632525712  0.177512086349
 CTD1     C  1  0.347450500075  0.138767581228
 CTD1    CA  1  0.346773417049  0.110698234855
 CTD1    CC  1  0.347450500075  0.110698234855
 CTD1    CD  1  0.347450500075  0.110698234855
 CTD1   CE1  1  0.355468588538  0.109105371453
 CTD1   CE2  1  0.354577689820  0.105847757841
 CTD1   CP1  1  0.338541512893  0.041840000000
 CTD1   CP2  1  0.338541512893  0.041840000000
 CTD1   CP3  1  0.338541512893  0.041840000000
 CTD1  CPH1  1  0.329632525712  0.093557084179
 CTD1  CPH2  1  0.329632525712  0.093557084179
 CTD1    CS  1  0.365268474438  0.138767581228
 CTD1   CPT  1  0.334977918021  0.131646486622
 CTD1    CY  1  0.346559601357  0.113045454929
 CTD1   CAI  1  0.346559601357  0.113045454929
 CTD1    CT  1  0.338541512893  0.041840000000
 CTD1   CT1  1  0.338541512893  0.041840000000
 CTD1   CT2  1  0.338541512893  0.041840000000
 CTD1  CT2A  1  0.338541512893  0.041840000000
 CTD1   CT3  1  0.338541512893  0.041840000000
 CTD1    C3  1  0.371950214824  0.059170695450
 CTD1     H  1  0.189271432669  0.089736802707
 CTD1    HA  1  0.286869387241  0.062058748940
 CTD1   HB1  1  0.286869387241  0.062058748940
 CTD1   HB2  1  0.288651184677  0.070011711020
 CTD1   HE1  1  0.280633096214  0.073666921749
 CTD1   HE2  1  0.281523994932  0.067464972838
 CTD1    HC  1  0.189271432669  0.089736802707
 CTD1    HP  1  0.290272620344  0.072469005789
 CTD1   HR1  1  0.249451641079  0.089736802707
 CTD1   HR2  1  0.231633666716  0.089736802707
 CTD1   HR3  1  0.300054688270  0.036952087465
 CTD1    HS  1  0.209361198763  0.132309697301
 CTD1   HA1  1  0.288651184677  0.088756043175
 CTD1   HA2  1  0.288651184677  0.077149148019
 CTD1   HA3  1  0.288651184677  0.064818249282
 CTD1     N  1  0.334087019303  0.004184000000
 CTD1   NC2  1  0.334087019303  0.187114168357
 CTD1   NH1  1  0.307360057758  0.187114168357
 CTD1   NH2  1  0.334087019303  0.187114168357
 CTD1   NH3  1  0.334087019303  0.187114168357
 CTD1    NP  1  0.334087019303  0.187114168357
 CTD1   NR1  1  0.334087019303  0.187114168357
 CTD1   NR2  1  0.334087019303  0.187114168357
 CTD1   NR3  1  0.334087019303  0.187114168357
 CTD1    NY  1  0.334087019303  0.187114168357
 CTD1     O  1  0.293996576986  0.144938011577
 CTD1    OB  1  0.293996576986  0.144938011577
 CTD1    OC  1  0.320723538531  0.144938011577
 CTD1   OH1  1  0.326959829558  0.163176000000
 CTD1    OS  1  0.326959829558  0.163176000000
 CTD1     S  1  0.347450500075  0.280671252536
 CTD1    SM  1  0.345223253279  0.257919081884
 CTD1    SS  1  0.365268474438  0.286840588481
 CTD1  HGA1  1  0.288651184677  0.088756043175
 CTD1  HGA2  1  0.288651184677  0.078275472531
 CTD1  HGA3  1  0.288651184677  0.064818249282
 CTD1  HGA4  1  0.280633096214  0.073666921749
 CTD1  HGA5  1  0.281523994932  0.067464972838
 CTD1  HGA6  1  0.286869387241  0.070011711020
 CTD1  HGA7  1  0.285087589805  0.072469005789
 CTD1 HGAAM0  1  0.283305792369  0.070011711020
 CTD1 HGAAM1  1  0.283305792369  0.070011711020
 CTD1 HGAAM2  1  0.281523994932  0.083680000000
 CTD1  HGP1  1  0.189271432669  0.089736802707
 CTD1  HGP2  1  0.189271432669  0.089736802707
 CTD1  HGP3  1  0.209361198763  0.132309697301
 CTD1  HGP4  1  0.189271432669  0.089736802707
 CTD1  HGP5  1  0.231633666716  0.089736802707
 CTD1 HGPAM1  1  0.247224394284  0.039692909190
 CTD1 HGPAM2  1  0.247224394284  0.041840000000
 CTD1 HGPAM3  1  0.246778944925  0.045833423612
 CTD1 HGR51  1  0.290272620344  0.072469005789
 CTD1 HGR52  1  0.249451641079  0.089736802707
 CTD1 HGR53  1  0.231633666716  0.089736802707
 CTD1 HGR61  1  0.290272620344  0.072469005789
 CTD1 HGR62  1  0.267269615442  0.089736802707
 CTD1 HGR63  1  0.249451641079  0.089736802707
 CTD1 HGR71  1  0.290272620344  0.072469005789
 CTD1 HGTIP3  1  0.189271432669  0.089736802707
 CTD1 CG1T1  1  0.333196120584  0.170981810495
 CTD1 CG1T2  1  0.346782326036  0.134409982486
 CTD1 CG1N1  1  0.335868816739  0.177512086349
 CTD1 CG2D1  1  0.355468588538  0.109105371453
 CTD1 CG2D2  1  0.354577689820  0.105847757841
 CTD1 CG2D1O  1  0.355468588538  0.109105371453
 CTD1 CG2D2O  1  0.355468588538  0.109105371453
 CTD1 CG2DC1  1  0.355468588538  0.109105371453
 CTD1 CG2DC2  1  0.355468588538  0.109105371453
 CTD1 CG2DC3  1  0.354577689820  0.105847757841
 CTD1 CG2N1  1  0.347450500075  0.138767581228
 CTD1 CG2N2  1  0.347450500075  0.138767581228
 CTD1 CG2O1  1  0.347450500075  0.138767581228
 CTD1 CG2O2  1  0.320723538531  0.130979917850
 CTD1 CG2O3  1  0.347450500075  0.110698234855
 CTD1 CG2O4  1  0.329632525712  0.102486650838
 CTD1 CG2O5  1  0.347450500075  0.125520000000
 CTD1 CG2O6  1  0.347450500075  0.110698234855
 CTD1 CG2O7  1  0.308518226092  0.100764063435
 CTD1 CG2R51  1  0.356359487256  0.093557084179
 CTD1 CG2R52  1  0.365268474438  0.059170695450
 CTD1 CG2R53  1  0.365268474438  0.059170695450
 CTD1 CG2R57  1  0.356359487256  0.093557084179
 CTD1 CG25C1  1  0.355468588538  0.109105371453
 CTD1 CG25C2  1  0.355468588538  0.109105371453
 CTD1 CG251O  1  0.355468588538  0.109105371453
 CTD1 CG252O  1  0.355468588538  0.109105371453
 CTD1 CG2R61  1  0.346773417049  0.110698234855
 CTD1 CG2R62  1  0.338541512893  0.125520000000
 CTD1 CG2R63  1  0.338541512893  0.132309697301
 CTD1 CG2R64  1  0.356359487256  0.083680000000
 CTD1 CG2R66  1  0.338541512893  0.110698234855
 CTD1 CG2R67  1  0.346773417049  0.110698234855
 CTD1 CG2RC0  1  0.334977918021  0.131646486622
 CTD1 CG2R71  1  0.346987232741  0.108300154755
 CTD1 CG2RC7  1  0.334977918021  0.131646486622
 CTD1 CG301  1  0.338541512893  0.041840000000
 CTD1 CG302  1  0.374177461619  0.059170695450
 CTD1 CG311  1  0.338541512893  0.041840000000
 CTD1 CG312  1  0.351904993665  0.085746484010
 CTD1 CG314  1  0.338541512893  0.041840000000
 CTD1 CG321  1  0.338541512893  0.041840000000
 CTD1 CG322  1  0.338541512893  0.102486650838
 CTD1 CG323  1  0.365268474438  0.138767581228
 CTD1 CG324  1  0.338541512893  0.041840000000
 CTD1 CG331  1  0.338541512893  0.041840000000
 CTD1 CG334  1  0.338541512893  0.041840000000
 CTD1 CG3C50  1  0.338541512893  0.041840000000
 CTD1 CG3C51  1  0.338541512893  0.041840000000
 CTD1 CG3C52  1  0.338541512893  0.041840000000
 CTD1 CG3C53  1  0.338541512893  0.041840000000
 CTD1 CG3C54  1  0.338541512893  0.041840000000
 CTD1 CG3C31  1  0.338541512893  0.041840000000
 CTD1 CG3C41  1  0.338541512893  0.041840000000
 CTD1 CG3RC1  1  0.338541512893  0.041840000000
 CTD1 CG3AM0  1  0.344777803920  0.110698234855
 CTD1 CG3AM1  1  0.345668702638  0.116852760686
 CTD1 CG3AM2  1  0.346559601357  0.118341390899
 CTD1 NG1T1  1  0.328741626994  0.177512086349
 CTD1 NG2D1  1  0.334087019303  0.187114168357
 CTD1 NG2S0  1  0.334087019303  0.004184000000
 CTD1 NG2S1  1  0.307360057758  0.187114168357
 CTD1 NG2S2  1  0.334087019303  0.187114168357
 CTD1 NG2S3  1  0.334087019303  0.187114168357
 CTD1 NG2O1  1  0.334087019303  0.187114168357
 CTD1 NG2P1  1  0.334087019303  0.187114168357
 CTD1 NG2R43  1  0.334087019303  0.187114168357
 CTD1 NG2R50  1  0.334087019303  0.187114168357
 CTD1 NG2R51  1  0.334087019303  0.187114168357
 CTD1 NG2R52  1  0.334087019303  0.187114168357
 CTD1 NG2R53  1  0.334087019303  0.187114168357
 CTD1 NG2R57  1  0.334087019303  0.187114168357
 CTD1 NG2R60  1  0.337650614175  0.102486650838
 CTD1 NG2R61  1  0.334087019303  0.187114168357
 CTD1 NG2R62  1  0.352795892384  0.093557084179
 CTD1 NG2R67  1  0.334087019303  0.187114168357
 CTD1 NG2RC0  1  0.334087019303  0.187114168357
 CTD1 NG301  1  0.347450500075  0.078275472531
 CTD1 NG311  1  0.347450500075  0.088756043175
 CTD1 NG321  1  0.346559601357  0.102486650838
 CTD1 NG331  1  0.345668702638  0.110698234855
 CTD1 NG3C51  1  0.334087019303  0.187114168357
 CTD1 NG3N1  1  0.351904993665  0.102486650838
 CTD1 NG3P0  1  0.334087019303  0.187114168357
 CTD1 NG3P1  1  0.334087019303  0.187114168357
 CTD1 NG3P2  1  0.334087019303  0.187114168357
 CTD1 NG3P3  1  0.334087019303  0.187114168357
 CTD1 OG2D1  1  0.293996576986  0.144938011577
 CTD1 OG2D2  1  0.320723538531  0.144938011577
 CTD1 OG2D3  1  0.293996576986  0.144938011577
 CTD1 OG2D4  1  0.320723538531  0.144938011577
 CTD1 OG2D5  1  0.320010819556  0.169954883425
 CTD1 OG2N1  1  0.320723538531  0.144938011577
 CTD1 OG2P1  1  0.320723538531  0.144938011577
 CTD1 OG2R50  1  0.320723538531  0.144938011577
 CTD1 OG3R60  1  0.316269044940  0.132309697301
 CTD1 OG301  1  0.316269044940  0.132309697301
 CTD1 OG302  1  0.316269044940  0.132309697301
 CTD1 OG303  1  0.316269044940  0.132309697301
 CTD1 OG304  1  0.316269044940  0.132309697301
 CTD1 OG311  1  0.326514380198  0.183381431383
 CTD1 OG312  1  0.325178032121  0.144938011577
 CTD1 OG3C31  1  0.316269044940  0.132309697301
 CTD1 OG3C51  1  0.316269044940  0.132309697301
 CTD1 OG3C61  1  0.316269044940  0.132309697301
 CTD1 OGTIP3  1  0.326799467788  0.163176000000
 CTD1 SG2D1  1  0.351904993665  0.314496560236
 CTD1 SG2R50  1  0.347450500075  0.280671252536
 CTD1 SG311  1  0.347450500075  0.280671252536
 CTD1 SG301  1  0.345223253279  0.257919081884
 CTD1 SG302  1  0.365268474438  0.286840588481
 CTD1 SG3O1  1  0.356359487256  0.286840588481
 CTD1 SG3O2  1  0.347450500075  0.247528778125
 CTD1 SG3O3  1  0.347450500075  0.247528778125
 CTD1  FGA1  1  0.314487247504  0.153729976257
 CTD1  FGA2  1  0.314487247504  0.135577095411
 CTD1  FGA3  1  0.311814551349  0.130309939452
 CTD1  FGP1  1  0.311814551349  0.130309939452
 CTD1  FGR1  1  0.320723538531  0.144938011577
 CTD1 CLGA1  1  0.339432411611  0.245040988571
 CTD1 CLGA3  1  0.339432411611  0.232955260941
 CTD1 BRGA1  1  0.344777803920  0.289876023155
 CTD1 BRGA2  1  0.351904993665  0.304599797767
 CTD1 BRGA3  1  0.347450500075  0.307459952514
 CTD1   SOD  1  0.294954293108  0.090610410351
 CTD1   CLA  1  0.371504765465  0.162045623205
 CTD1   PG0  1  0.360813980847  0.320014464673
 CTD1   PG1  1  0.360813980847  0.320014464673
 CTD1   PG2  1  0.360813980847  0.320014464673
 CTD1  ALG1  1  0.347450500075  0.337324864189
 CTD1   LPH  1  0.169270756447  0.000000000000
 CTD1 CLGR1  1  0.334977918021  0.200657590935
 CTD1 BRGR1  1  0.345668702638  0.236682781799
 CTD1  IGR1  1  0.368832069310  0.301712530731
 CTD1 SG2P1  1  0.355798221064  0.332305491450
 CTD1 OG2S1  1  0.318906105146  0.157831660601
 CTD1 SG2P2  1  0.352314807076  0.329421919951
 CTD1 SEGD1  1  0.363041227642  0.330244580395
 CTD1 BG201  1  0.396449929572  0.081561175077
 CTD1 CC301  1  0.338541512893  0.041840000000
 CTD1 CC3062  1  0.338541512893  0.041840000000
 CTD1 CC311  1  0.338541512893  0.041840000000
 CTD1 CC3161  1  0.338541512893  0.041840000000
 CTD1 CC3162  1  0.338541512893  0.041840000000
 CTD1 CC3163  1  0.338541512893  0.041840000000
 CTD1 CC321  1  0.338541512893  0.041840000000
 CTD1 CC3261  1  0.338541512893  0.041840000000
 CTD1 CC3263  1  0.338541512893  0.041840000000
 CTD1 CC331  1  0.338541512893  0.041840000000
 CTD1 CC2O1  1  0.347450500075  0.138767581228
 CTD1 CC2O2  1  0.347450500075  0.110698234855
 CTD1 CC2O3  1  0.347450500075  0.125520000000
 CTD1 CC2O4  1  0.329632525712  0.102486650838
 CTD1 CC2O5  1  0.320723538531  0.130979917850
 CTD1 OC2D1  1  0.293996576986  0.144938011577
 CTD1 OC2D2  1  0.320723538531  0.144938011577
 CTD1 OC2D3  1  0.293996576986  0.144938011577
 CTD1 OC2D4  1  0.293996576986  0.144938011577
 CTD1 OC3C61  1  0.316269044940  0.132309697301
 CTD1 OC311  1  0.326514380198  0.183381431383
 CTD1 NC2D1  1  0.307360057758  0.187114168357
 CTD1  HCP1  1  0.189271432669  0.089736802707
 CTD1  HCA1  1  0.288651184677  0.088756043175
 CTD1  HCA2  1  0.288651184677  0.078275472531
 CTD1  HCA3  1  0.288651184677  0.064818249282
 CTD1 CC312  1  0.338541512893  0.041840000000
 CTD1 CC322  1  0.338541512893  0.041840000000
 CTD1  HCR1  1  0.240542653898  0.089736802707
 CTD1 HCA3M  1  0.288651184677  0.064818249282
 CTD1 CC321C  1  0.338541512893  0.041840000000
 CTD1 CC321D  1  0.338541512893  0.041840000000
 CTD1 CC311C  1  0.338541512893  0.041840000000
 CTD1 CC311D  1  0.338541512893  0.041840000000
 CTD1 OC301  1  0.316269044940  0.132309697301
 CTD1 OC302  1  0.316269044940  0.132309697301
 CTD1 HCP1M  1  0.189271432669  0.089736802707
 CTD1 OC311M  1  0.326514380198  0.183381431383
 CTD1 OC3C5M  1  0.316269044940  0.132309697301
 CTD1 CC322C  1  0.338541512893  0.041840000000
 CTD1 HCA2C2  1  0.285087589805  0.078275472531
 CTD1 CC312C  1  0.338541512893  0.041840000000
 CTD1 HCA1C2  1  0.288651184677  0.088756043175
 CTD1 OC3C51  1  0.316269044940  0.132309697301
 CTD1 CC3152  1  0.338541512893  0.041840000000
 CTD1 CC3051  1  0.338541512893  0.041840000000
 CTD1 CC3251  1  0.338541512893  0.041840000000
 CTD1 CC3151  1  0.338541512893  0.041840000000
 CTD1 CC3153  1  0.338541512893  0.041840000000
 CTD1 OC2DP  1  0.320723538531  0.144938011577
 CTD1 OC312  1  0.326959829558  0.163176000000
 CTD1 OC30P  1  0.326959829558  0.163176000000
 CTD1    PC  1  0.360813980847  0.320014464673
 CTD1    SC  1  0.356359487256  0.286840588481
 CTD1 CC312D  1  0.338541512893  0.041840000000
 CTD1 OC303  1  0.316269044940  0.132309697301
 CTD1 NC311  1  0.347450500075  0.088756043175
 CTD1   HN1  1  0.189271432669  0.089736802707
 CTD1   HN2  1  0.189271432669  0.089736802707
 CTD1   HN3  1  0.267269615442  0.089736802707
 CTD1   HN4  1  0.189271432669  0.089736802707
 CTD1   HN5  1  0.189271432669  0.089736802707
 CTD1   HN6  1  0.286869387241  0.062058748940
 CTD1   HN7  1  0.286869387241  0.062058748940
 CTD1   HN8  1  0.288651184677  0.070011711020
 CTD1   HN9  1  0.288651184677  0.064818249282
 CTD1   NN1  1  0.334087019303  0.187114168357
 CTD1   NN2  1  0.334087019303  0.187114168357
 CTD1  NN2B  1  0.334087019303  0.187114168357
 CTD1  NN2G  1  0.334087019303  0.187114168357
 CTD1  NN2U  1  0.334087019303  0.187114168357
 CTD1   NN3  1  0.334087019303  0.187114168357
 CTD1  NN3A  1  0.334087019303  0.187114168357
 CTD1  NN3G  1  0.334087019303  0.187114168357
 CTD1   NN4  1  0.334087019303  0.187114168357
 CTD1   NN6  1  0.334087019303  0.187114168357
 CTD1   ON1  1  0.320723538531  0.144938011577
 CTD1  ON1C  1  0.320723538531  0.144938011577
 CTD1   ON2  1  0.326959829558  0.163176000000
 CTD1   ON3  1  0.320723538531  0.144938011577
 CTD1   ON4  1  0.326959829558  0.163176000000
 CTD1   ON5  1  0.326959829558  0.163176000000
 CTD1   ON6  1  0.326959829558  0.163176000000
 CTD1  ON6B  1  0.326959829558  0.163176000000
 CTD1   CN1  1  0.338541512893  0.132309697301
 CTD1  CN1T  1  0.338541512893  0.132309697301
 CTD1   CN2  1  0.338541512893  0.132309697301
 CTD1   CN3  1  0.338541512893  0.125520000000
 CTD1  CN3T  1  0.338541512893  0.125520000000
 CTD1   CN4  1  0.338541512893  0.114583559030
 CTD1   CN5  1  0.338541512893  0.114583559030
 CTD1  CN5G  1  0.338541512893  0.114583559030
 CTD1   CN7  1  0.338541512893  0.041840000000
 CTD1  CN7B  1  0.338541512893  0.041840000000
 CTD1   CN8  1  0.338541512893  0.041840000000
 CTD1  CN8B  1  0.338541512893  0.041840000000
 CTD1   CN9  1  0.338541512893  0.041840000000
 CTD1     P  1  0.360813980847  0.320014464673
 CTD1    P2  1  0.360813980847  0.320014464673
 CTD1    P3  1  0.360813980847  0.320014464673
 CTD1    P4  1  0.360813980847  0.320014464673
 CTD1   HOL  1  0.189271432669  0.089736802707
 CTD1  HAL1  1  0.286869387241  0.062058748940
 CTD1  HAL2  1  0.288651184677  0.070011711020
 CTD1  HAL3  1  0.288651184677  0.064818249282
 CTD1   HBL  1  0.286869387241  0.062058748940
 CTD1   HCL  1  0.189271432669  0.089736802707
 CTD1    HL  1  0.231633666716  0.089736802707
 CTD1  HEL1  1  0.280633096214  0.073666921749
 CTD1  HEL2  1  0.281523994932  0.067464972838
 CTD1    CL  1  0.347450500075  0.110698234855
 CTD1   CCL  1  0.347450500075  0.110698234855
 CTD1  CTL1  1  0.338541512893  0.041840000000
 CTD1  CTL2  1  0.338541512893  0.041840000000
 CTD1  CTL3  1  0.338541512893  0.041840000000
 CTD1  CTL5  1  0.338541512893  0.041840000000
 CTD1  CEL1  1  0.355468588538  0.109105371453
 CTD1  CEL2  1  0.354577689820  0.105847757841
 CTD1  CRL1  1  0.338541512893  0.041840000000
 CTD1  CRL2  1  0.338541512893  0.041840000000
 CTD1   OBL  1  0.293996576986  0.144938011577
 CTD1   OCL  1  0.320723538531  0.144938011577
 CTD1   O2L  1  0.320723538531  0.144938011577
 CTD1   OHL  1  0.326959829558  0.163176000000
 CTD1   OSL  1  0.316269044940  0.132309697301
 CTD1  OSLP  1  0.316269044940  0.132309697301
 CTD1  NH3L  1  0.334087019303  0.187114168357
 CTD1   NTL  1  0.334087019303  0.187114168357
 CTD1    SL  1  0.356359487256  0.286840588481
 CTD1    PL  1  0.360813980847  0.320014464673
 CTD1 HCA1A  1  0.288651184677  0.088756043175
 CTD1 HCA2A  1  0.288651184677  0.078275472531
 CTD1 HCA3A  1  0.288651184677  0.064818249282
 CTD1 CC30A  1  0.338541512893  0.041840000000
 CTD1 CC31A  1  0.338541512893  0.041840000000
 CTD1 CC32A  1  0.338541512893  0.041840000000
 CTD1 CC33A  1  0.338541512893  0.041840000000
 CTD1 CC326A  1  0.338541512893  0.041840000000
 CTD1 HCA25A  1  0.285087589805  0.078275472531
 CTD1 CC325A  1  0.338541512893  0.041840000000
 CTD1 CC325B  1  0.338541512893  0.041840000000
 CTD1 OC305A  1  0.316269044940  0.132309697301
 CTD1 OC30A  1  0.316269044940  0.132309697301
 CTD1  HSIO  1  0.189271432669  0.089736802707
 CTD1  HSIA  1  0.286869387241  0.062058748940
 CTD1   HAL  1  0.286869387241  0.062058748940
 CTD1    AL  1  0.365268474438  0.337324864189
 CTD1    SI  1  0.365268474438  0.324091246411
 CTD1  SIH3  1  0.365268474438  0.324091246411
 CTD1  OSIH  1  0.326959829558  0.163176000000
 CTD1  OSIE  1  0.326959829558  0.163176000000
 CTD1  OSIA  1  0.326959829558  0.163176000000
 CTD1   OAL  1  0.326959829558  0.163176000000
 CTD1    HT  1  0.189271432669  0.089736802707
 CTD1    OT  1  0.326799467788  0.163176000000
 CTD1   DUM  1  0.169270756447  0.000000000000
 CTD1    CM  1  0.356359487256  0.138767581228
 CTD1   CPA  1  0.329632525712  0.125520000000
 CTD1   CPB  1  0.329632525712  0.125520000000
 CTD1   CPM  1  0.329632525712  0.125520000000
 CTD1   CST  1  0.308518226092  0.100764063435
 CTD1  CT1X  1  0.338541512893  0.041840000000
 CTD1  CT2X  1  0.338541512893  0.041840000000
 CTD1  CT3X  1  0.338541512893  0.041840000000
 CTD1    HB  1  0.286869387241  0.062058748940
 CTD1   NPH  1  0.334087019303  0.187114168357
 CTD1    OM  1  0.320723538531  0.144938011577
 CTD1   OST  1  0.320010819556  0.169954883425
 CTD1   POT  1  0.326403017859  0.123410269913
 CTD1   CAL  1  0.291056611216  0.144938011577
 CTD1    MG  1  0.274842254546  0.051243325419
 CTD1   CES  1  0.356359487256  0.182376331798
 CTD1    ZN  1  0.266378716724  0.209200000000
 CTD1    FE  1  0.227179173126  0.000000000000
 CTD1    HE  1  0.301123766731  0.061020452073
 CTD1    NE  1  0.305578260322  0.122698965603
 CTD1  CLAL  1  0.339272049842  0.072469005789
 CTD1    AG  1  0.300901042052  0.893457908130
 CTD1    AU  1  0.300722862308  0.962320000000
 CTD1    CU  1  0.285800308779  0.908997471504
 CTD1    NI  1  0.282949432881  0.994525446633
 CTD1    PB  1  0.328073452955  0.716185437439
 CTD1    PD  1  0.294842930769  1.037598257516
 CTD1    PT  1  0.296001099102  1.168527606863
 CTD1   CAP  1  0.346773417049  0.110698234855
 CTD1    FA  1  0.320723538531  0.144938011577
 CTD1    CN  1  0.325178032121  0.187114168357
 CTD1    NC  1  0.334087019303  0.324091246411
 CTD1   OCA  1  0.293996576986  0.144938011577
 CTD1   COA  1  0.347450500075  0.138767581228
 CTD1   CF1  1  0.338541512893  0.102486650838
 CTD1   CF2  1  0.351904993665  0.085746484010
 CTD1   CF3  1  0.374177461619  0.059170695450
 CTD1   HF1  1  0.286869387241  0.070011711020
 CTD1   HF2  1  0.285087589805  0.072469005789
 CTD1    F1  1  0.314487247504  0.153729976257
 CTD1    F2  1  0.314487247504  0.135577095411
 CTD1    F3  1  0.311814551349  0.130309939452
 CTD1    OX  1  0.320723538531  0.144938011577
 CTD1    HX  1  0.189271432669  0.089736802707
 CTD1  HPER  1  0.189271432669  0.089736802707
 CTD1  OPER  1  0.318427692534  0.188901923946
 CTD1   LIT  1  0.284864865125  0.020196198771
 CTD1   RUB  1  0.338541512893  0.162045623205
 CTD1   BAR  1  0.337650614175  0.162045623205
 CTD1   CAD  1  0.290165712498  0.144938011577
 CTD1  ON2B  1  0.326959829558  0.163176000000
 CTD1    SP  1  0.365268474438  0.280671252536
 CTD1   HNP  1  0.290272620344  0.072469005789
 CTD1  HNE1  1  0.280633096214  0.073666921749
 CTD1  HNE2  1  0.281523994932  0.067464972838
 CTD1  CN3D  1  0.338541512893  0.125520000000
 CTD1  CNE1  1  0.355468588538  0.109105371453
 CTD1  CNE2  1  0.354577689820  0.105847757841
 CTD1   CNA  1  0.346773417049  0.110698234855
 CTD1  CNA2  1  0.338541512893  0.110698234855
 CTD1   CNG  1  0.347450500075  0.138767581228
 CTD1  NN1C  1  0.334087019303  0.187114168357
 CTD1  NN2C  1  0.334087019303  0.187114168357
 CTD1  NN3I  1  0.334087019303  0.187114168357
 CTD1   NNG  1  0.334087019303  0.187114168357
 CTD1   FNA  1  0.320723538531  0.144938011577
 CTD1  ON2M  1  0.316269044940  0.132309697301
 CTD1   CN6  1  0.338541512893  0.041840000000
 CTD1  CN7E  1  0.338541512893  0.041840000000
 CTD1  CT2P  1  0.338541512893  0.041840000000
 CTD1  CTD1  1  0.338541512893  0.041840000000
 CTD1  CPD1  1  0.338541512893  0.041840000000
 CTD1  CC1A  1  0.355468588538  0.109105371453
 CTD1  CC1B  1  0.355468588538  0.109105371453
 CTD1   CC2  1  0.354577689820  0.105847757841
 CTD1   NS1  1  0.334087019303  0.187114168357
 CTD1   NS2  1  0.334087019303  0.187114168357
 CTD1   NHL  1  0.307360057758  0.187114168357
 CTD1  CTO1  1  0.338541512893  0.041840000000
 CTD1  CEL3  1  0.355468588538  0.109105371453
 CTD1  CTO2  1  0.338541512893  0.041840000000
 CTD1  HN3B  1  0.249451641079  0.089736802707
 CTD1  CN1A  1  0.347450500075  0.110698234855
 CTD1  CN3A  1  0.329632525712  0.177512086349
 CTD1  CN3B  1  0.329632525712  0.177512086349
 CTD1  CN3C  1  0.329632525712  0.177512086349
 CPD1     C  1  0.347450500075  0.138767581228
 CPD1    CA  1  0.346773417049  0.110698234855
 CPD1    CC  1  0.347450500075  0.110698234855
 CPD1    CD  1  0.347450500075  0.110698234855
 CPD1   CE1  1  0.355468588538  0.109105371453
 CPD1   CE2  1  0.354577689820  0.105847757841
 CPD1   CP1  1  0.338541512893  0.041840000000
 CPD1   CP2  1  0.338541512893  0.041840000000
 CPD1   CP3  1  0.338541512893  0.041840000000
 CPD1  CPH1  1  0.329632525712  0.093557084179
 CPD1  CPH2  1  0.329632525712  0.093557084179
 CPD1    CS  1  0.365268474438  0.138767581228
 CPD1   CPT  1  0.334977918021  0.131646486622
 CPD1    CY  1  0.346559601357  0.113045454929
 CPD1   CAI  1  0.346559601357  0.113045454929
 CPD1    CT  1  0.338541512893  0.041840000000
 CPD1   CT1  1  0.338541512893  0.041840000000
 CPD1   CT2  1  0.338541512893  0.041840000000
 CPD1  CT2A  1  0.338541512893  0.041840000000
 CPD1   CT3  1  0.338541512893  0.041840000000
 CPD1    C3  1  0.371950214824  0.059170695450
 CPD1     H  1  0.189271432669  0.089736802707
 CPD1    HA  1  0.286869387241  0.062058748940
 CPD1   HB1  1  0.286869387241  0.062058748940
 CPD1   HB2  1  0.288651184677  0.070011711020
 CPD1   HE1  1  0.280633096214  0.073666921749
 CPD1   HE2  1  0.281523994932  0.067464972838
 CPD1    HC  1  0.189271432669  0.089736802707
 CPD1    HP  1  0.290272620344  0.072469005789
 CPD1   HR1  1  0.249451641079  0.089736802707
 CPD1   HR2  1  0.231633666716  0.089736802707
 CPD1   HR3  1  0.300054688270  0.036952087465
 CPD1    HS  1  0.209361198763  0.132309697301
 CPD1   HA1  1  0.288651184677  0.088756043175
 CPD1   HA2  1  0.288651184677  0.077149148019
 CPD1   HA3  1  0.288651184677  0.064818249282
 CPD1     N  1  0.334087019303  0.004184000000
 CPD1   NC2  1  0.334087019303  0.187114168357
 CPD1   NH1  1  0.307360057758  0.187114168357
 CPD1   NH2  1  0.334087019303  0.187114168357
 CPD1   NH3  1  0.334087019303  0.187114168357
 CPD1    NP  1  0.334087019303  0.187114168357
 CPD1   NR1  1  0.334087019303  0.187114168357
 CPD1   NR2  1  0.334087019303  0.187114168357
 CPD1   NR3  1  0.334087019303  0.187114168357
 CPD1    NY  1  0.334087019303  0.187114168357
 CPD1     O  1  0.293996576986  0.144938011577
 CPD1    OB  1  0.293996576986  0.144938011577
 CPD1    OC  1  0.320723538531  0.144938011577
 CPD1   OH1  1  0.326959829558  0.163176000000
 CPD1    OS  1  0.326959829558  0.163176000000
 CPD1     S  1  0.347450500075  0.280671252536
 CPD1    SM  1  0.345223253279  0.257919081884
 CPD1    SS  1  0.365268474438  0.286840588481
 CPD1  HGA1  1  0.288651184677  0.088756043175
 CPD1  HGA2  1  0.288651184677  0.078275472531
 CPD1  HGA3  1  0.288651184677  0.064818249282
 CPD1  HGA4  1  0.280633096214  0.073666921749
 CPD1  HGA5  1  0.281523994932  0.067464972838
 CPD1  HGA6  1  0.286869387241  0.070011711020
 CPD1  HGA7  1  0.285087589805  0.072469005789
 CPD1 HGAAM0  1  0.283305792369  0.070011711020
 CPD1 HGAAM1  1  0.283305792369  0.070011711020
 CPD1 HGAAM2  1  0.281523994932  0.083680000000
 CPD1  HGP1  1  0.189271432669  0.089736802707
 CPD1  HGP2  1  0.189271432669  0.089736802707
 CPD1  HGP3  1  0.209361198763  0.132309697301
 CPD1  HGP4  1  0.189271432669  0.089736802707
 CPD1  HGP5  1  0.231633666716  0.089736802707
 CPD1 HGPAM1  1  0.247224394284  0.039692909190
 CPD1 HGPAM2  1  0.247224394284  0.041840000000
 CPD1 HGPAM3  1  0.246778944925  0.045833423612
 CPD1 HGR51  1  0.290272620344  0.072469005789
 CPD1 HGR52  1  0.249451641079  0.089736802707
 CPD1 HGR53  1  0.231633666716  0.089736802707
 CPD1 HGR61  1  0.290272620344  0.072469005789
 CPD1 HGR62  1  0.267269615442  0.089736802707
 CPD1 HGR63  1  0.249451641079  0.089736802707
 CPD1 HGR71  1  0.290272620344  0.072469005789
 CPD1 HGTIP3  1  0.189271432669  0.089736802707
 CPD1 CG1T1  1  0.333196120584  0.170981810495
 CPD1 CG1T2  1  0.346782326036  0.134409982486
 CPD1 CG1N1  1  0.335868816739  0.177512086349
 CPD1 CG2D1  1  0.355468588538  0.109105371453
 CPD1 CG2D2  1  0.354577689820  0.105847757841
 CPD1 CG2D1O  1  0.355468588538  0.109105371453
 CPD1 CG2D2O  1  0.355468588538  0.109105371453
 CPD1 CG2DC1  1  0.355468588538  0.109105371453
 CPD1 CG2DC2  1  0.355468588538  0.109105371453
 CPD1 CG2DC3  1  0.354577689820  0.105847757841
 CPD1 CG2N1  1  0.347450500075  0.138767581228
 CPD1 CG2N2  1  0.347450500075  0.138767581228
 CPD1 CG2O1  1  0.347450500075  0.138767581228
 CPD1 CG2O2  1  0.320723538531  0.130979917850
 CPD1 CG2O3  1  0.347450500075  0.110698234855
 CPD1 CG2O4  1  0.329632525712  0.102486650838
 CPD1 CG2O5  1  0.347450500075  0.125520000000
 CPD1 CG2O6  1  0.347450500075  0.110698234855
 CPD1 CG2O7  1  0.308518226092  0.100764063435
 CPD1 CG2R51  1  0.356359487256  0.093557084179
 CPD1 CG2R52  1  0.365268474438  0.059170695450
 CPD1 CG2R53  1  0.365268474438  0.059170695450
 CPD1 CG2R57  1  0.356359487256  0.093557084179
 CPD1 CG25C1  1  0.355468588538  0.109105371453
 CPD1 CG25C2  1  0.355468588538  0.109105371453
 CPD1 CG251O  1  0.355468588538  0.109105371453
 CPD1 CG252O  1  0.355468588538  0.109105371453
 CPD1 CG2R61  1  0.346773417049  0.110698234855
 CPD1 CG2R62  1  0.338541512893  0.125520000000
 CPD1 CG2R63  1  0.338541512893  0.132309697301
 CPD1 CG2R64  1  0.356359487256  0.083680000000
 CPD1 CG2R66  1  0.338541512893  0.110698234855
 CPD1 CG2R67  1  0.346773417049  0.110698234855
 CPD1 CG2RC0  1  0.334977918021  0.131646486622
 CPD1 CG2R71  1  0.346987232741  0.108300154755
 CPD1 CG2RC7  1  0.334977918021  0.131646486622
 CPD1 CG301  1  0.338541512893  0.041840000000
 CPD1 CG302  1  0.374177461619  0.059170695450
 CPD1 CG311  1  0.338541512893  0.041840000000
 CPD1 CG312  1  0.351904993665  0.085746484010
 CPD1 CG314  1  0.338541512893  0.041840000000
 CPD1 CG321  1  0.338541512893  0.041840000000
 CPD1 CG322  1  0.338541512893  0.102486650838
 CPD1 CG323  1  0.365268474438  0.138767581228
 CPD1 CG324  1  0.338541512893  0.041840000000
 CPD1 CG331  1  0.338541512893  0.041840000000
 CPD1 CG334  1  0.338541512893  0.041840000000
 CPD1 CG3C50  1  0.338541512893  0.041840000000
 CPD1 CG3C51  1  0.338541512893  0.041840000000
 CPD1 CG3C52  1  0.338541512893  0.041840000000
 CPD1 CG3C53  1  0.338541512893  0.041840000000
 CPD1 CG3C54  1  0.338541512893  0.041840000000
 CPD1 CG3C31  1  0.338541512893  0.041840000000
 CPD1 CG3C41  1  0.338541512893  0.041840000000
 CPD1 CG3RC1  1  0.338541512893  0.041840000000
 CPD1 CG3AM0  1  0.344777803920  0.110698234855
 CPD1 CG3AM1  1  0.345668702638  0.116852760686
 CPD1 CG3AM2  1  0.346559601357  0.118341390899
 CPD1 NG1T1  1  0.328741626994  0.177512086349
 CPD1 NG2D1  1  0.334087019303  0.187114168357
 CPD1 NG2S0  1  0.334087019303  0.004184000000
 CPD1 NG2S1  1  0.307360057758  0.187114168357
 CPD1 NG2S2  1  0.334087019303  0.187114168357
 CPD1 NG2S3  1  0.334087019303  0.187114168357
 CPD1 NG2O1  1  0.334087019303  0.187114168357
 CPD1 NG2P1  1  0.334087019303  0.187114168357
 CPD1 NG2R43  1  0.334087019303  0.187114168357
 CPD1 NG2R50  1  0.334087019303  0.187114168357
 CPD1 NG2R51  1  0.334087019303  0.187114168357
 CPD1 NG2R52  1  0.334087019303  0.187114168357
 CPD1 NG2R53  1  0.334087019303  0.187114168357
 CPD1 NG2R57  1  0.334087019303  0.187114168357
 CPD1 NG2R60  1  0.337650614175  0.102486650838
 CPD1 NG2R61  1  0.334087019303  0.187114168357
 CPD1 NG2R62  1  0.352795892384  0.093557084179
 CPD1 NG2R67  1  0.334087019303  0.187114168357
 CPD1 NG2RC0  1  0.334087019303  0.187114168357
 CPD1 NG301  1  0.347450500075  0.078275472531
 CPD1 NG311  1  0.347450500075  0.088756043175
 CPD1 NG321  1  0.346559601357  0.102486650838
 CPD1 NG331  1  0.345668702638  0.110698234855
 CPD1 NG3C51  1  0.334087019303  0.187114168357
 CPD1 NG3N1  1  0.351904993665  0.102486650838
 CPD1 NG3P0  1  0.334087019303  0.187114168357
 CPD1 NG3P1  1  0.334087019303  0.187114168357
 CPD1 NG3P2  1  0.334087019303  0.187114168357
 CPD1 NG3P3  1  0.334087019303  0.187114168357
 CPD1 OG2D1  1  0.293996576986  0.144938011577
 CPD1 OG2D2  1  0.320723538531  0.144938011577
 CPD1 OG2D3  1  0.293996576986  0.144938011577
 CPD1 OG2D4  1  0.320723538531  0.144938011577
 CPD1 OG2D5  1  0.320010819556  0.169954883425
 CPD1 OG2N1  1  0.320723538531  0.144938011577
 CPD1 OG2P1  1  0.320723538531  0.144938011577
 CPD1 OG2R50  1  0.320723538531  0.144938011577
 CPD1 OG3R60  1  0.316269044940  0.132309697301
 CPD1 OG301  1  0.316269044940  0.132309697301
 CPD1 OG302  1  0.316269044940  0.132309697301
 CPD1 OG303  1  0.316269044940  0.132309697301
 CPD1 OG304  1  0.316269044940  0.132309697301
 CPD1 OG311  1  0.326514380198  0.183381431383
 CPD1 OG312  1  0.325178032121  0.144938011577
 CPD1 OG3C31  1  0.316269044940  0.132309697301
 CPD1 OG3C51  1  0.316269044940  0.132309697301
 CPD1 OG3C61  1  0.316269044940  0.132309697301
 CPD1 OGTIP3  1  0.326799467788  0.163176000000
 CPD1 SG2D1  1  0.351904993665  0.314496560236
 CPD1 SG2R50  1  0.347450500075  0.280671252536
 CPD1 SG311  1  0.347450500075  0.280671252536
 CPD1 SG301  1  0.345223253279  0.257919081884
 CPD1 SG302  1  0.365268474438  0.286840588481
 CPD1 SG3O1  1  0.356359487256  0.286840588481
 CPD1 SG3O2  1  0.347450500075  0.247528778125
 CPD1 SG3O3  1  0.347450500075  0.247528778125
 CPD1  FGA1  1  0.314487247504  0.153729976257
 CPD1  FGA2  1  0.314487247504  0.135577095411
 CPD1  FGA3  1  0.311814551349  0.130309939452
 CPD1  FGP1  1  0.311814551349  0.130309939452
 CPD1  FGR1  1  0.320723538531  0.144938011577
 CPD1 CLGA1  1  0.339432411611  0.245040988571
 CPD1 CLGA3  1  0.339432411611  0.232955260941
 CPD1 BRGA1  1  0.344777803920  0.289876023155
 CPD1 BRGA2  1  0.351904993665  0.304599797767
 CPD1 BRGA3  1  0.347450500075  0.307459952514
 CPD1   SOD  1  0.294954293108  0.090610410351
 CPD1   CLA  1  0.371504765465  0.162045623205
 CPD1   PG0  1  0.360813980847  0.320014464673
 CPD1   PG1  1  0.360813980847  0.320014464673
 CPD1   PG2  1  0.360813980847  0.320014464673
 CPD1  ALG1  1  0.347450500075  0.337324864189
 CPD1   LPH  1  0.169270756447  0.000000000000
 CPD1 CLGR1  1  0.334977918021  0.200657590935
 CPD1 BRGR1  1  0.345668702638  0.236682781799
 CPD1  IGR1  1  0.368832069310  0.301712530731
 CPD1 SG2P1  1  0.355798221064  0.332305491450
 CPD1 OG2S1  1  0.318906105146  0.157831660601
 CPD1 SG2P2  1  0.352314807076  0.329421919951
 CPD1 SEGD1  1  0.363041227642  0.330244580395
 CPD1 BG201  1  0.396449929572  0.081561175077
 CPD1 CC301  1  0.338541512893  0.041840000000
 CPD1 CC3062  1  0.338541512893  0.041840000000
 CPD1 CC311  1  0.338541512893  0.041840000000
 CPD1 CC3161  1  0.338541512893  0.041840000000
 CPD1 CC3162  1  0.338541512893  0.041840000000
 CPD1 CC3163  1  0.338541512893  0.041840000000
 CPD1 CC321  1  0.338541512893  0.041840000000
 CPD1 CC3261  1  0.338541512893  0.041840000000
 CPD1 CC3263  1  0.338541512893  0.041840000000
 CPD1 CC331  1  0.338541512893  0.041840000000
 CPD1 CC2O1  1  0.347450500075  0.138767581228
 CPD1 CC2O2  1  0.347450500075  0.110698234855
 CPD1 CC2O3  1  0.347450500075  0.125520000000
 CPD1 CC2O4  1  0.329632525712  0.102486650838
 CPD1 CC2O5  1  0.320723538531  0.130979917850
 CPD1 OC2D1  1  0.293996576986  0.144938011577
 CPD1 OC2D2  1  0.320723538531  0.144938011577
 CPD1 OC2D3  1  0.293996576986  0.144938011577
 CPD1 OC2D4  1  0.293996576986  0.144938011577
 CPD1 OC3C61  1  0.316269044940  0.132309697301
 CPD1 OC311  1  0.326514380198  0.183381431383
 CPD1 NC2D1  1  0.307360057758  0.187114168357
 CPD1  HCP1  1  0.189271432669  0.089736802707
 CPD1  HCA1  1  0.288651184677  0.088756043175
 CPD1  HCA2  1  0.288651184677  0.078275472531
 CPD1  HCA3  1  0.288651184677  0.064818249282
 CPD1 CC312  1  0.338541512893  0.041840000000
 CPD1 CC322  1  0.338541512893  0.041840000000
 CPD1  HCR1  1  0.240542653898  0.089736802707
 CPD1 HCA3M  1  0.288651184677  0.064818249282
 CPD1 CC321C  1  0.338541512893  0.041840000000
 CPD1 CC321D  1  0.338541512893  0.041840000000
 CPD1 CC311C  1  0.338541512893  0.041840000000
 CPD1 CC311D  1  0.338541512893  0.041840000000
 CPD1 OC301  1  0.316269044940  0.132309697301
 CPD1 OC302  1  0.316269044940  0.132309697301
 CPD1 HCP1M  1  0.189271432669  0.089736802707
 CPD1 OC311M  1  0.326514380198  0.183381431383
 CPD1 OC3C5M  1  0.316269044940  0.132309697301
 CPD1 CC322C  1  0.338541512893  0.041840000000
 CPD1 HCA2C2  1  0.285087589805  0.078275472531
 CPD1 CC312C  1  0.338541512893  0.041840000000
 CPD1 HCA1C2  1  0.288651184677  0.088756043175
 CPD1 OC3C51  1  0.316269044940  0.132309697301
 CPD1 CC3152  1  0.338541512893  0.041840000000
 CPD1 CC3051  1  0.338541512893  0.041840000000
 CPD1 CC3251  1  0.338541512893  0.041840000000
 CPD1 CC3151  1  0.338541512893  0.041840000000
 CPD1 CC3153  1  0.338541512893  0.041840000000
 CPD1 OC2DP  1  0.320723538531  0.144938011577
 CPD1 OC312  1  0.326959829558  0.163176000000
 CPD1 OC30P  1  0.326959829558  0.163176000000
 CPD1    PC  1  0.360813980847  0.320014464673
 CPD1    SC  1  0.356359487256  0.286840588481
 CPD1 CC312D  1  0.338541512893  0.041840000000
 CPD1 OC303  1  0.316269044940  0.132309697301
 CPD1 NC311  1  0.347450500075  0.088756043175
 CPD1   HN1  1  0.189271432669  0.089736802707
 CPD1   HN2  1  0.189271432669  0.089736802707
 CPD1   HN3  1  0.267269615442  0.089736802707
 CPD1   HN4  1  0.189271432669  0.089736802707
 CPD1   HN5  1  0.189271432669  0.089736802707
 CPD1   HN6  1  0.286869387241  0.062058748940
 CPD1   HN7  1  0.286869387241  0.062058748940
 CPD1   HN8  1  0.288651184677  0.070011711020
 CPD1   HN9  1  0.288651184677  0.064818249282
 CPD1   NN1  1  0.334087019303  0.187114168357
 CPD1   NN2  1  0.334087019303  0.187114168357
 CPD1  NN2B  1  0.334087019303  0.187114168357
 CPD1  NN2G  1  0.334087019303  0.187114168357
 CPD1  NN2U  1  0.334087019303  0.187114168357
 CPD1   NN3  1  0.334087019303  0.187114168357
 CPD1  NN3A  1  0.334087019303  0.187114168357
 CPD1  NN3G  1  0.334087019303  0.187114168357
 CPD1   NN4  1  0.334087019303  0.187114168357
 CPD1   NN6  1  0.334087019303  0.187114168357
 CPD1   ON1  1  0.320723538531  0.144938011577
 CPD1  ON1C  1  0.320723538531  0.144938011577
 CPD1   ON2  1  0.326959829558  0.163176000000
 CPD1   ON3  1  0.320723538531  0.144938011577
 CPD1   ON4  1  0.326959829558  0.163176000000
 CPD1   ON5  1  0.326959829558  0.163176000000
 CPD1   ON6  1  0.326959829558  0.163176000000
 CPD1  ON6B  1  0.326959829558  0.163176000000
 CPD1   CN1  1  0.338541512893  0.132309697301
 CPD1  CN1T  1  0.338541512893  0.132309697301
 CPD1   CN2  1  0.338541512893  0.132309697301
 CPD1   CN3  1  0.338541512893  0.125520000000
 CPD1  CN3T  1  0.338541512893  0.125520000000
 CPD1   CN4  1  0.338541512893  0.114583559030
 CPD1   CN5  1  0.338541512893  0.114583559030
 CPD1  CN5G  1  0.338541512893  0.114583559030
 CPD1   CN7  1  0.338541512893  0.041840000000
 CPD1  CN7B  1  0.338541512893  0.041840000000
 CPD1   CN8  1  0.338541512893  0.041840000000
 CPD1  CN8B  1  0.338541512893  0.041840000000
 CPD1   CN9  1  0.338541512893  0.041840000000
 CPD1     P  1  0.360813980847  0.320014464673
 CPD1    P2  1  0.360813980847  0.320014464673
 CPD1    P3  1  0.360813980847  0.320014464673
 CPD1    P4  1  0.360813980847  0.320014464673
 CPD1   HOL  1  0.189271432669  0.089736802707
 CPD1  HAL1  1  0.286869387241  0.062058748940
 CPD1  HAL2  1  0.288651184677  0.070011711020
 CPD1  HAL3  1  0.288651184677  0.064818249282
 CPD1   HBL  1  0.286869387241  0.062058748940
 CPD1   HCL  1  0.189271432669  0.089736802707
 CPD1    HL  1  0.231633666716  0.089736802707
 CPD1  HEL1  1  0.280633096214  0.073666921749
 CPD1  HEL2  1  0.281523994932  0.067464972838
 CPD1    CL  1  0.347450500075  0.110698234855
 CPD1   CCL  1  0.347450500075  0.110698234855
 CPD1  CTL1  1  0.338541512893  0.041840000000
 CPD1  CTL2  1  0.338541512893  0.041840000000
 CPD1  CTL3  1  0.338541512893  0.041840000000
 CPD1  CTL5  1  0.338541512893  0.041840000000
 CPD1  CEL1  1  0.355468588538  0.109105371453
 CPD1  CEL2  1  0.354577689820  0.105847757841
 CPD1  CRL1  1  0.338541512893  0.041840000000
 CPD1  CRL2  1  0.338541512893  0.041840000000
 CPD1   OBL  1  0.293996576986  0.144938011577
 CPD1   OCL  1  0.320723538531  0.144938011577
 CPD1   O2L  1  0.320723538531  0.144938011577
 CPD1   OHL  1  0.326959829558  0.163176000000
 CPD1   OSL  1  0.316269044940  0.132309697301
 CPD1  OSLP  1  0.316269044940  0.132309697301
 CPD1  NH3L  1  0.334087019303  0.187114168357
 CPD1   NTL  1  0.334087019303  0.187114168357
 CPD1    SL  1  0.356359487256  0.286840588481
 CPD1    PL  1  0.360813980847  0.320014464673
 CPD1 HCA1A  1  0.288651184677  0.088756043175
 CPD1 HCA2A  1  0.288651184677  0.078275472531
 CPD1 HCA3A  1  0.288651184677  0.064818249282
 CPD1 CC30A  1  0.338541512893  0.041840000000
 CPD1 CC31A  1  0.338541512893  0.041840000000
 CPD1 CC32A  1  0.338541512893  0.041840000000
 CPD1 CC33A  1  0.338541512893  0.041840000000
 CPD1 CC326A  1  0.338541512893  0.041840000000
 CPD1 HCA25A  1  0.285087589805  0.078275472531
 CPD1 CC325A  1  0.338541512893  0.041840000000
 CPD1 CC325B  1  0.338541512893  0.041840000000
 CPD1 OC305A  1  0.316269044940  0.132309697301
 CPD1 OC30A  1  0.316269044940  0.132309697301
 CPD1  HSIO  1  0.189271432669  0.089736802707
 CPD1  HSIA  1  0.286869387241  0.062058748940
 CPD1   HAL  1  0.286869387241  0.062058748940
 CPD1    AL  1  0.365268474438  0.337324864189
 CPD1    SI  1  0.365268474438  0.324091246411
 CPD1  SIH3  1  0.365268474438  0.324091246411
 CPD1  OSIH  1  0.326959829558  0.163176000000
 CPD1  OSIE  1  0.326959829558  0.163176000000
 CPD1  OSIA  1  0.326959829558  0.163176000000
 CPD1   OAL  1  0.326959829558  0.163176000000
 CPD1    HT  1  0.189271432669  0.089736802707
 CPD1    OT  1  0.326799467788  0.163176000000
 CPD1   DUM  1  0.169270756447  0.000000000000
 CPD1    CM  1  0.356359487256  0.138767581228
 CPD1   CPA  1  0.329632525712  0.125520000000
 CPD1   CPB  1  0.329632525712  0.125520000000
 CPD1   CPM  1  0.329632525712  0.125520000000
 CPD1   CST  1  0.308518226092  0.100764063435
 CPD1  CT1X  1  0.338541512893  0.041840000000
 CPD1  CT2X  1  0.338541512893  0.041840000000
 CPD1  CT3X  1  0.338541512893  0.041840000000
 CPD1    HB  1  0.286869387241  0.062058748940
 CPD1   NPH  1  0.334087019303  0.187114168357
 CPD1    OM  1  0.320723538531  0.144938011577
 CPD1   OST  1  0.320010819556  0.169954883425
 CPD1   POT  1  0.326403017859  0.123410269913
 CPD1   CAL  1  0.291056611216  0.144938011577
 CPD1    MG  1  0.274842254546  0.051243325419
 CPD1   CES  1  0.356359487256  0.182376331798
 CPD1    ZN  1  0.266378716724  0.209200000000
 CPD1    FE  1  0.227179173126  0.000000000000
 CPD1    HE  1  0.301123766731  0.061020452073
 CPD1    NE  1  0.305578260322  0.122698965603
 CPD1  CLAL  1  0.339272049842  0.072469005789
 CPD1    AG  1  0.300901042052  0.893457908130
 CPD1    AU  1  0.300722862308  0.962320000000
 CPD1    CU  1  0.285800308779  0.908997471504
 CPD1    NI  1  0.282949432881  0.994525446633
 CPD1    PB  1  0.328073452955  0.716185437439
 CPD1    PD  1  0.294842930769  1.037598257516
 CPD1    PT  1  0.296001099102  1.168527606863
 CPD1   CAP  1  0.346773417049  0.110698234855
 CPD1    FA  1  0.320723538531  0.144938011577
 CPD1    CN  1  0.325178032121  0.187114168357
 CPD1    NC  1  0.334087019303  0.324091246411
 CPD1   OCA  1  0.293996576986  0.144938011577
 CPD1   COA  1  0.347450500075  0.138767581228
 CPD1   CF1  1  0.338541512893  0.102486650838
 CPD1   CF2  1  0.351904993665  0.085746484010
 CPD1   CF3  1  0.374177461619  0.059170695450
 CPD1   HF1  1  0.286869387241  0.070011711020
 CPD1   HF2  1  0.285087589805  0.072469005789
 CPD1    F1  1  0.314487247504  0.153729976257
 CPD1    F2  1  0.314487247504  0.135577095411
 CPD1    F3  1  0.311814551349  0.130309939452
 CPD1    OX  1  0.320723538531  0.144938011577
 CPD1    HX  1  0.189271432669  0.089736802707
 CPD1  HPER  1  0.189271432669  0.089736802707
 CPD1  OPER  1  0.318427692534  0.188901923946
 CPD1   LIT  1  0.284864865125  0.020196198771
 CPD1   RUB  1  0.338541512893  0.162045623205
 CPD1   BAR  1  0.337650614175  0.162045623205
 CPD1   CAD  1  0.290165712498  0.144938011577
 CPD1  ON2B  1  0.326959829558  0.163176000000
 CPD1    SP  1  0.365268474438  0.280671252536
 CPD1   HNP  1  0.290272620344  0.072469005789
 CPD1  HNE1  1  0.280633096214  0.073666921749
 CPD1  HNE2  1  0.281523994932  0.067464972838
 CPD1  CN3D  1  0.338541512893  0.125520000000
 CPD1  CNE1  1  0.355468588538  0.109105371453
 CPD1  CNE2  1  0.354577689820  0.105847757841
 CPD1   CNA  1  0.346773417049  0.110698234855
 CPD1  CNA2  1  0.338541512893  0.110698234855
 CPD1   CNG  1  0.347450500075  0.138767581228
 CPD1  NN1C  1  0.334087019303  0.187114168357
 CPD1  NN2C  1  0.334087019303  0.187114168357
 CPD1  NN3I  1  0.334087019303  0.187114168357
 CPD1   NNG  1  0.334087019303  0.187114168357
 CPD1   FNA  1  0.320723538531  0.144938011577
 CPD1  ON2M  1  0.316269044940  0.132309697301
 CPD1   CN6  1  0.338541512893  0.041840000000
 CPD1  CN7E  1  0.338541512893  0.041840000000
 CPD1  CT2P  1  0.338541512893  0.041840000000
 CPD1  CTD1  1  0.338541512893  0.041840000000
 CPD1  CPD1  1  0.338541512893  0.041840000000
 CPD1  CC1A  1  0.355468588538  0.109105371453
 CPD1  CC1B  1  0.355468588538  0.109105371453
 CPD1   CC2  1  0.354577689820  0.105847757841
 CPD1   NS1  1  0.334087019303  0.187114168357
 CPD1   NS2  1  0.334087019303  0.187114168357
 CPD1   NHL  1  0.307360057758  0.187114168357
 CPD1  CTO1  1  0.338541512893  0.041840000000
 CPD1  CEL3  1  0.355468588538  0.109105371453
 CPD1  CTO2  1  0.338541512893  0.041840000000
 CPD1  HN3B  1  0.249451641079  0.089736802707
 CPD1  CN1A  1  0.347450500075  0.110698234855
 CPD1  CN3A  1  0.329632525712  0.177512086349
 CPD1  CN3B  1  0.329632525712  0.177512086349
 CPD1  CN3C  1  0.329632525712  0.177512086349
  NHL     C  1  0.316269044940  0.620587489400
  NHL    CA  1  0.315591961914  0.495057556250
  NHL    CC  1  0.316269044940  0.495057556250
  NHL    CD  1  0.316269044940  0.495057556250
  NHL   CE1  1  0.324287133403  0.487934054561
  NHL   CE2  1  0.323396234685  0.473365563598
  NHL   CP1  1  0.307360057758  0.187114168357
  NHL   CP2  1  0.307360057758  0.187114168357
  NHL   CP3  1  0.307360057758  0.187114168357
  NHL  CPH1  1  0.298451070577  0.418400000000
  NHL  CPH2  1  0.298451070577  0.418400000000
  NHL    CS  1  0.334087019303  0.620587489400
  NHL   CPT  1  0.303796462886  0.588740986173
  NHL    CY  1  0.315378146222  0.505554643535
  NHL   CAI  1  0.315378146222  0.505554643535
  NHL    CT  1  0.307360057758  0.187114168357
  NHL   CT1  1  0.307360057758  0.187114168357
  NHL   CT2  1  0.307360057758  0.187114168357
  NHL  CT2A  1  0.307360057758  0.187114168357
  NHL   CT3  1  0.307360057758  0.187114168357
  NHL    C3  1  0.340768759689  0.264619394603
  NHL     H  1  0.158089977534  0.401315181871
  NHL    HA  1  0.255687932106  0.277535162457
  NHL   HB1  1  0.255687932106  0.277535162457
  NHL   HB2  1  0.257469729543  0.313101890125
  NHL   HE1  1  0.249451641079  0.329448489449
  NHL   HE2  1  0.250342539797  0.301712530731
  NHL    HC  1  0.158089977534  0.401315181871
  NHL    HP  1  0.259091165210  0.324091246411
  NHL   HR1  1  0.218270185944  0.401315181871
  NHL   HR2  1  0.200452211582  0.401315181871
  NHL   HR3  1  0.268873233135  0.165254758963
  NHL    HS  1  0.178179743628  0.591706954497
  NHL   HA1  1  0.257469729543  0.396929091904
  NHL   HA2  1  0.257469729543  0.345021478752
  NHL   HA3  1  0.257469729543  0.289876023155
  NHL     N  1  0.302905564168  0.018711416836
  NHL   NC2  1  0.302905564168  0.836800000000
  NHL   NH1  1  0.276178602624  0.836800000000
  NHL   NH2  1  0.302905564168  0.836800000000
  NHL   NH3  1  0.302905564168  0.836800000000
  NHL    NP  1  0.302905564168  0.836800000000
  NHL   NR1  1  0.302905564168  0.836800000000
  NHL   NR2  1  0.302905564168  0.836800000000
  NHL   NR3  1  0.302905564168  0.836800000000
  NHL    NY  1  0.302905564168  0.836800000000
  NHL     O  1  0.262815121851  0.648182492821
  NHL    OB  1  0.262815121851  0.648182492821
  NHL    OC  1  0.289542083396  0.648182492821
  NHL   OH1  1  0.295778374423  0.729745256593
  NHL    OS  1  0.295778374423  0.729745256593
  NHL     S  1  0.316269044940  1.255200000000
  NHL    SM  1  0.314041798144  1.153449199575
  NHL    SS  1  0.334087019303  1.282790109098
  NHL  HGA1  1  0.257469729543  0.396929091904
  NHL  HGA2  1  0.257469729543  0.350058555102
  NHL  HGA3  1  0.257469729543  0.289876023155
  NHL  HGA4  1  0.249451641079  0.329448489449
  NHL  HGA5  1  0.250342539797  0.301712530731
  NHL  HGA6  1  0.255687932106  0.313101890125
  NHL  HGA7  1  0.253906134670  0.324091246411
  NHL HGAAM0  1  0.252124337234  0.313101890125
  NHL HGAAM1  1  0.252124337234  0.313101890125
  NHL HGAAM2  1  0.250342539797  0.374228336714
  NHL  HGP1  1  0.158089977534  0.401315181871
  NHL  HGP2  1  0.158089977534  0.401315181871
  NHL  HGP3  1  0.178179743628  0.591706954497
  NHL  HGP4  1  0.158089977534  0.401315181871
  NHL  HGP5  1  0.200452211582  0.401315181871
  NHL HGPAM1  1  0.216042939149  0.177512086349
  NHL HGPAM2  1  0.216042939149  0.187114168357
  NHL HGPAM3  1  0.215597489790  0.204973301676
  NHL HGR51  1  0.259091165210  0.324091246411
  NHL HGR52  1  0.218270185944  0.401315181871
  NHL HGR53  1  0.200452211582  0.401315181871
  NHL HGR61  1  0.259091165210  0.324091246411
  NHL HGR62  1  0.236088160307  0.401315181871
  NHL HGR63  1  0.218270185944  0.401315181871
  NHL HGR71  1  0.259091165210  0.324091246411
  NHL HGTIP3  1  0.158089977534  0.401315181871
  NHL CG1T1  1  0.302014665450  0.764653902364
  NHL CG1T2  1  0.315600870901  0.601099715388
  NHL CG1N1  1  0.304687361604  0.793858183809
  NHL CG2D1  1  0.324287133403  0.487934054561
  NHL CG2D2  1  0.323396234685  0.473365563598
  NHL CG2D1O  1  0.324287133403  0.487934054561
  NHL CG2D2O  1  0.324287133403  0.487934054561
  NHL CG2DC1  1  0.324287133403  0.487934054561
  NHL CG2DC2  1  0.324287133403  0.487934054561
  NHL CG2DC3  1  0.323396234685  0.473365563598
  NHL CG2N1  1  0.316269044940  0.620587489400
  NHL CG2N2  1  0.316269044940  0.620587489400
  NHL CG2O1  1  0.316269044940  0.620587489400
  NHL CG2O2  1  0.289542083396  0.585760000000
  NHL CG2O3  1  0.316269044940  0.495057556250
  NHL CG2O4  1  0.298451070577  0.458334236120
  NHL CG2O5  1  0.316269044940  0.561342505072
  NHL CG2O6  1  0.316269044940  0.495057556250
  NHL CG2O7  1  0.277336770957  0.450630591061
  NHL CG2R51  1  0.325178032121  0.418400000000
  NHL CG2R52  1  0.334087019303  0.264619394603
  NHL CG2R53  1  0.334087019303  0.264619394603
  NHL CG2R57  1  0.325178032121  0.418400000000
  NHL CG25C1  1  0.324287133403  0.487934054561
  NHL CG25C2  1  0.324287133403  0.487934054561
  NHL CG251O  1  0.324287133403  0.487934054561
  NHL CG252O  1  0.324287133403  0.487934054561
  NHL CG2R61  1  0.315591961914  0.495057556250
  NHL CG2R62  1  0.307360057758  0.561342505072
  NHL CG2R63  1  0.307360057758  0.591706954497
  NHL CG2R64  1  0.325178032121  0.374228336714
  NHL CG2R66  1  0.307360057758  0.495057556250
  NHL CG2R67  1  0.315591961914  0.495057556250
  NHL CG2RC0  1  0.303796462886  0.588740986173
  NHL CG2R71  1  0.315805777606  0.484333016013
  NHL CG2RC7  1  0.303796462886  0.588740986173
  NHL CG301  1  0.307360057758  0.187114168357
  NHL CG302  1  0.342996006484  0.264619394603
  NHL CG311  1  0.307360057758  0.187114168357
  NHL CG312  1  0.320723538531  0.383469934154
  NHL CG314  1  0.307360057758  0.187114168357
  NHL CG321  1  0.307360057758  0.187114168357
  NHL CG322  1  0.307360057758  0.458334236120
  NHL CG323  1  0.334087019303  0.620587489400
  NHL CG324  1  0.307360057758  0.187114168357
  NHL CG331  1  0.307360057758  0.187114168357
  NHL CG334  1  0.307360057758  0.187114168357
  NHL CG3C50  1  0.307360057758  0.187114168357
  NHL CG3C51  1  0.307360057758  0.187114168357
  NHL CG3C52  1  0.307360057758  0.187114168357
  NHL CG3C53  1  0.307360057758  0.187114168357
  NHL CG3C54  1  0.307360057758  0.187114168357
  NHL CG3C31  1  0.307360057758  0.187114168357
  NHL CG3C41  1  0.307360057758  0.187114168357
  NHL CG3RC1  1  0.307360057758  0.187114168357
  NHL CG3AM0  1  0.313596348785  0.495057556250
  NHL CG3AM1  1  0.314487247504  0.522581432506
  NHL CG3AM2  1  0.315378146222  0.529238789206
  NHL NG1T1  1  0.297560171859  0.793858183809
  NHL NG2D1  1  0.302905564168  0.836800000000
  NHL NG2S0  1  0.302905564168  0.018711416836
  NHL NG2S1  1  0.276178602624  0.836800000000
  NHL NG2S2  1  0.302905564168  0.836800000000
  NHL NG2S3  1  0.302905564168  0.836800000000
  NHL NG2O1  1  0.302905564168  0.836800000000
  NHL NG2P1  1  0.302905564168  0.836800000000
  NHL NG2R43  1  0.302905564168  0.836800000000
  NHL NG2R50  1  0.302905564168  0.836800000000
  NHL NG2R51  1  0.302905564168  0.836800000000
  NHL NG2R52  1  0.302905564168  0.836800000000
  NHL NG2R53  1  0.302905564168  0.836800000000
  NHL NG2R57  1  0.302905564168  0.836800000000
  NHL NG2R60  1  0.306469159040  0.458334236120
  NHL NG2R61  1  0.302905564168  0.836800000000
  NHL NG2R62  1  0.321614437249  0.418400000000
  NHL NG2R67  1  0.302905564168  0.836800000000
  NHL NG2RC0  1  0.302905564168  0.836800000000
  NHL NG301  1  0.316269044940  0.350058555102
  NHL NG311  1  0.316269044940  0.396929091904
  NHL NG321  1  0.315378146222  0.458334236120
  NHL NG331  1  0.314487247504  0.495057556250
  NHL NG3C51  1  0.302905564168  0.836800000000
  NHL NG3N1  1  0.320723538531  0.458334236120
  NHL NG3P0  1  0.302905564168  0.836800000000
  NHL NG3P1  1  0.302905564168  0.836800000000
  NHL NG3P2  1  0.302905564168  0.836800000000
  NHL NG3P3  1  0.302905564168  0.836800000000
  NHL OG2D1  1  0.262815121851  0.648182492821
  NHL OG2D2  1  0.289542083396  0.648182492821
  NHL OG2D3  1  0.262815121851  0.648182492821
  NHL OG2D4  1  0.289542083396  0.648182492821
  NHL OG2D5  1  0.288829364421  0.760061344893
  NHL OG2N1  1  0.289542083396  0.648182492821
  NHL OG2P1  1  0.289542083396  0.648182492821
  NHL OG2R50  1  0.289542083396  0.648182492821
  NHL OG3R60  1  0.285087589805  0.591706954497
  NHL OG301  1  0.285087589805  0.591706954497
  NHL OG302  1  0.285087589805  0.591706954497
  NHL OG303  1  0.285087589805  0.591706954497
  NHL OG304  1  0.285087589805  0.591706954497
  NHL OG311  1  0.295332925064  0.820106692766
  NHL OG312  1  0.293996576986  0.648182492821
  NHL OG3C31  1  0.285087589805  0.591706954497
  NHL OG3C51  1  0.285087589805  0.591706954497
  NHL OG3C61  1  0.285087589805  0.591706954497
  NHL OGTIP3  1  0.295618012653  0.729745256593
  NHL SG2D1  1  0.320723538531  1.406471374753
  NHL SG2R50  1  0.316269044940  1.255200000000
  NHL SG311  1  0.316269044940  1.255200000000
  NHL SG301  1  0.314041798144  1.153449199575
  NHL SG302  1  0.334087019303  1.282790109098
  NHL SG3O1  1  0.325178032121  1.282790109098
  NHL SG3O2  1  0.316269044940  1.106982348549
  NHL SG3O3  1  0.316269044940  1.106982348549
  NHL  FGA1  1  0.283305792369  0.687501354180
  NHL  FGA2  1  0.283305792369  0.606319203061
  NHL  FGA3  1  0.280633096214  0.582763765517
  NHL  FGP1  1  0.280633096214  0.582763765517
  NHL  FGR1  1  0.289542083396  0.648182492821
  NHL CLGA1  1  0.308250956477  1.095856615438
  NHL CLGA3  1  0.308250956477  1.041807598360
  NHL BRGA1  1  0.313596348785  1.296364985643
  NHL BRGA2  1  0.320723538531  1.362211707482
  NHL BRGA3  1  0.316269044940  1.375002708361
  NHL   SOD  1  0.263772837973  0.405222074029
  NHL   CLA  1  0.340323310330  0.724690057887
  NHL   PG0  1  0.329632525712  1.431148193584
  NHL   PG1  1  0.329632525712  1.431148193584
  NHL   PG2  1  0.329632525712  1.431148193584
  NHL  ALG1  1  0.316269044940  1.508562653654
  NHL   LPH  1  0.138089301312  0.000000000000
  NHL CLGR1  1  0.303796462886  0.897368027066
  NHL BRGR1  1  0.314487247504  1.058477578412
  NHL  IGR1  1  0.337650614175  1.349299456755
  NHL SG2P1  1  0.324616765929  1.486115336359
  NHL OG2S1  1  0.287724650011  0.705844644210
  NHL SG2P2  1  0.321133351941  1.473219612576
  NHL SEGD1  1  0.331859772507  1.476898661926
  NHL BG201  1  0.365268474438  0.364752663595
  NHL CC301  1  0.307360057758  0.187114168357
  NHL CC3062  1  0.307360057758  0.187114168357
  NHL CC311  1  0.307360057758  0.187114168357
  NHL CC3161  1  0.307360057758  0.187114168357
  NHL CC3162  1  0.307360057758  0.187114168357
  NHL CC3163  1  0.307360057758  0.187114168357
  NHL CC321  1  0.307360057758  0.187114168357
  NHL CC3261  1  0.307360057758  0.187114168357
  NHL CC3263  1  0.307360057758  0.187114168357
  NHL CC331  1  0.307360057758  0.187114168357
  NHL CC2O1  1  0.316269044940  0.620587489400
  NHL CC2O2  1  0.316269044940  0.495057556250
  NHL CC2O3  1  0.316269044940  0.561342505072
  NHL CC2O4  1  0.298451070577  0.458334236120
  NHL CC2O5  1  0.289542083396  0.585760000000
  NHL OC2D1  1  0.262815121851  0.648182492821
  NHL OC2D2  1  0.289542083396  0.648182492821
  NHL OC2D3  1  0.262815121851  0.648182492821
  NHL OC2D4  1  0.262815121851  0.648182492821
  NHL OC3C61  1  0.285087589805  0.591706954497
  NHL OC311  1  0.295332925064  0.820106692766
  NHL NC2D1  1  0.276178602624  0.836800000000
  NHL  HCP1  1  0.158089977534  0.401315181871
  NHL  HCA1  1  0.257469729543  0.396929091904
  NHL  HCA2  1  0.257469729543  0.350058555102
  NHL  HCA3  1  0.257469729543  0.289876023155
  NHL CC312  1  0.307360057758  0.187114168357
  NHL CC322  1  0.307360057758  0.187114168357
  NHL  HCR1  1  0.209361198763  0.401315181871
  NHL HCA3M  1  0.257469729543  0.289876023155
  NHL CC321C  1  0.307360057758  0.187114168357
  NHL CC321D  1  0.307360057758  0.187114168357
  NHL CC311C  1  0.307360057758  0.187114168357
  NHL CC311D  1  0.307360057758  0.187114168357
  NHL OC301  1  0.285087589805  0.591706954497
  NHL OC302  1  0.285087589805  0.591706954497
  NHL HCP1M  1  0.158089977534  0.401315181871
  NHL OC311M  1  0.295332925064  0.820106692766
  NHL OC3C5M  1  0.285087589805  0.591706954497
  NHL CC322C  1  0.307360057758  0.187114168357
  NHL HCA2C2  1  0.253906134670  0.350058555102
  NHL CC312C  1  0.307360057758  0.187114168357
  NHL HCA1C2  1  0.257469729543  0.396929091904
  NHL OC3C51  1  0.285087589805  0.591706954497
  NHL CC3152  1  0.307360057758  0.187114168357
  NHL CC3051  1  0.307360057758  0.187114168357
  NHL CC3251  1  0.307360057758  0.187114168357
  NHL CC3151  1  0.307360057758  0.187114168357
  NHL CC3153  1  0.307360057758  0.187114168357
  NHL OC2DP  1  0.289542083396  0.648182492821
  NHL OC312  1  0.295778374423  0.729745256593
  NHL OC30P  1  0.295778374423  0.729745256593
  NHL    PC  1  0.329632525712  1.431148193584
  NHL    SC  1  0.325178032121  1.282790109098
  NHL CC312D  1  0.307360057758  0.187114168357
  NHL OC303  1  0.285087589805  0.591706954497
  NHL NC311  1  0.316269044940  0.396929091904
  NHL   HN1  1  0.158089977534  0.401315181871
  NHL   HN2  1  0.158089977534  0.401315181871
  NHL   HN3  1  0.236088160307  0.401315181871
  NHL   HN4  1  0.158089977534  0.401315181871
  NHL   HN5  1  0.158089977534  0.401315181871
  NHL   HN6  1  0.255687932106  0.277535162457
  NHL   HN7  1  0.255687932106  0.277535162457
  NHL   HN8  1  0.257469729543  0.313101890125
  NHL   HN9  1  0.257469729543  0.289876023155
  NHL   NN1  1  0.302905564168  0.836800000000
  NHL   NN2  1  0.302905564168  0.836800000000
  NHL  NN2B  1  0.302905564168  0.836800000000
  NHL  NN2G  1  0.302905564168  0.836800000000
  NHL  NN2U  1  0.302905564168  0.836800000000
  NHL   NN3  1  0.302905564168  0.836800000000
  NHL  NN3A  1  0.302905564168  0.836800000000
  NHL  NN3G  1  0.302905564168  0.836800000000
  NHL   NN4  1  0.302905564168  0.836800000000
  NHL   NN6  1  0.302905564168  0.836800000000
  NHL   ON1  1  0.289542083396  0.648182492821
  NHL  ON1C  1  0.289542083396  0.648182492821
  NHL   ON2  1  0.295778374423  0.729745256593
  NHL   ON3  1  0.289542083396  0.648182492821
  NHL   ON4  1  0.295778374423  0.729745256593
  NHL   ON5  1  0.295778374423  0.729745256593
  NHL   ON6  1  0.295778374423  0.729745256593
  NHL  ON6B  1  0.295778374423  0.729745256593
  NHL   CN1  1  0.307360057758  0.591706954497
  NHL  CN1T  1  0.307360057758  0.591706954497
  NHL   CN2  1  0.307360057758  0.591706954497
  NHL   CN3  1  0.307360057758  0.561342505072
  NHL  CN3T  1  0.307360057758  0.561342505072
  NHL   CN4  1  0.307360057758  0.512433254190
  NHL   CN5  1  0.307360057758  0.512433254190
  NHL  CN5G  1  0.307360057758  0.512433254190
  NHL   CN7  1  0.307360057758  0.187114168357
  NHL  CN7B  1  0.307360057758  0.187114168357
  NHL   CN8  1  0.307360057758  0.187114168357
  NHL  CN8B  1  0.307360057758  0.187114168357
  NHL   CN9  1  0.307360057758  0.187114168357
  NHL     P  1  0.329632525712  1.431148193584
  NHL    P2  1  0.329632525712  1.431148193584
  NHL    P3  1  0.329632525712  1.431148193584
  NHL    P4  1  0.329632525712  1.431148193584
  NHL   HOL  1  0.158089977534  0.401315181871
  NHL  HAL1  1  0.255687932106  0.277535162457
  NHL  HAL2  1  0.257469729543  0.313101890125
  NHL  HAL3  1  0.257469729543  0.289876023155
  NHL   HBL  1  0.255687932106  0.277535162457
  NHL   HCL  1  0.158089977534  0.401315181871
  NHL    HL  1  0.200452211582  0.401315181871
  NHL  HEL1  1  0.249451641079  0.329448489449
  NHL  HEL2  1  0.250342539797  0.301712530731
  NHL    CL  1  0.316269044940  0.495057556250
  NHL   CCL  1  0.316269044940  0.495057556250
  NHL  CTL1  1  0.307360057758  0.187114168357
  NHL  CTL2  1  0.307360057758  0.187114168357
  NHL  CTL3  1  0.307360057758  0.187114168357
  NHL  CTL5  1  0.307360057758  0.187114168357
  NHL  CEL1  1  0.324287133403  0.487934054561
  NHL  CEL2  1  0.323396234685  0.473365563598
  NHL  CRL1  1  0.307360057758  0.187114168357
  NHL  CRL2  1  0.307360057758  0.187114168357
  NHL   OBL  1  0.262815121851  0.648182492821
  NHL   OCL  1  0.289542083396  0.648182492821
  NHL   O2L  1  0.289542083396  0.648182492821
  NHL   OHL  1  0.295778374423  0.729745256593
  NHL   OSL  1  0.285087589805  0.591706954497
  NHL  OSLP  1  0.285087589805  0.591706954497
  NHL  NH3L  1  0.302905564168  0.836800000000
  NHL   NTL  1  0.302905564168  0.836800000000
  NHL    SL  1  0.325178032121  1.282790109098
  NHL    PL  1  0.329632525712  1.431148193584
  NHL HCA1A  1  0.257469729543  0.396929091904
  NHL HCA2A  1  0.257469729543  0.350058555102
  NHL HCA3A  1  0.257469729543  0.289876023155
  NHL CC30A  1  0.307360057758  0.187114168357
  NHL CC31A  1  0.307360057758  0.187114168357
  NHL CC32A  1  0.307360057758  0.187114168357
  NHL CC33A  1  0.307360057758  0.187114168357
  NHL CC326A  1  0.307360057758  0.187114168357
  NHL HCA25A  1  0.253906134670  0.350058555102
  NHL CC325A  1  0.307360057758  0.187114168357
  NHL CC325B  1  0.307360057758  0.187114168357
  NHL OC305A  1  0.285087589805  0.591706954497
  NHL OC30A  1  0.285087589805  0.591706954497
  NHL  HSIO  1  0.158089977534  0.401315181871
  NHL  HSIA  1  0.255687932106  0.277535162457
  NHL   HAL  1  0.255687932106  0.277535162457
  NHL    AL  1  0.334087019303  1.508562653654
  NHL    SI  1  0.334087019303  1.449380115774
  NHL  SIH3  1  0.334087019303  1.449380115774
  NHL  OSIH  1  0.295778374423  0.729745256593
  NHL  OSIE  1  0.295778374423  0.729745256593
  NHL  OSIA  1  0.295778374423  0.729745256593
  NHL   OAL  1  0.295778374423  0.729745256593
  NHL    HT  1  0.158089977534  0.401315181871
  NHL    OT  1  0.295618012653  0.729745256593
  NHL   DUM  1  0.138089301312  0.000000000000
  NHL    CM  1  0.325178032121  0.620587489400
  NHL   CPA  1  0.298451070577  0.561342505072
  NHL   CPB  1  0.298451070577  0.561342505072
  NHL   CPM  1  0.298451070577  0.561342505072
  NHL   CST  1  0.277336770957  0.450630591061
  NHL  CT1X  1  0.307360057758  0.187114168357
  NHL  CT2X  1  0.307360057758  0.187114168357
  NHL  CT3X  1  0.307360057758  0.187114168357
  NHL    HB  1  0.255687932106  0.277535162457
  NHL   NPH  1  0.302905564168  0.836800000000
  NHL    OM  1  0.289542083396  0.648182492821
  NHL   OST  1  0.288829364421  0.760061344893
  NHL   POT  1  0.295221562724  0.551907505294
  NHL   CAL  1  0.259875156082  0.648182492821
  NHL    MG  1  0.243660799411  0.229167118060
  NHL   CES  1  0.325178032121  0.815611750774
  NHL    ZN  1  0.235197261589  0.935570841786
  NHL    FE  1  0.195997717991  0.000000000000
  NHL    HE  1  0.269942311597  0.272891757706
  NHL    NE  1  0.274396805187  0.548726455714
  NHL  CLAL  1  0.308090594707  0.324091246411
  NHL    AG  1  0.269719586917  3.995665235227
  NHL    AU  1  0.269541407173  4.303625872215
  NHL    CU  1  0.254618853645  4.065160275315
  NHL    NI  1  0.251767977746  4.447653008048
  NHL    PB  1  0.296891997820  3.202878645219
  NHL    PD  1  0.263661475634  4.640280474282
  NHL    PT  1  0.264819643967  5.225814325060
  NHL   CAP  1  0.315591961914  0.495057556250
  NHL    FA  1  0.289542083396  0.648182492821
  NHL    CN  1  0.293996576986  0.836800000000
  NHL    NC  1  0.302905564168  1.449380115774
  NHL   OCA  1  0.262815121851  0.648182492821
  NHL   COA  1  0.316269044940  0.620587489400
  NHL   CF1  1  0.307360057758  0.458334236120
  NHL   CF2  1  0.320723538531  0.383469934154
  NHL   CF3  1  0.342996006484  0.264619394603
  NHL   HF1  1  0.255687932106  0.313101890125
  NHL   HF2  1  0.253906134670  0.324091246411
  NHL    F1  1  0.283305792369  0.687501354180
  NHL    F2  1  0.283305792369  0.606319203061
  NHL    F3  1  0.280633096214  0.582763765517
  NHL    OX  1  0.289542083396  0.648182492821
  NHL    HX  1  0.158089977534  0.401315181871
  NHL  HPER  1  0.158089977534  0.401315181871
  NHL  OPER  1  0.287246237399  0.844795086046
  NHL   LIT  1  0.253683409990  0.090320146678
  NHL   RUB  1  0.307360057758  0.724690057887
  NHL   BAR  1  0.306469159040  0.724690057887
  NHL   CAD  1  0.258984257363  0.648182492821
  NHL  ON2B  1  0.295778374423  0.729745256593
  NHL    SP  1  0.334087019303  1.255200000000
  NHL   HNP  1  0.259091165210  0.324091246411
  NHL  HNE1  1  0.249451641079  0.329448489449
  NHL  HNE2  1  0.250342539797  0.301712530731
  NHL  CN3D  1  0.307360057758  0.561342505072
  NHL  CNE1  1  0.324287133403  0.487934054561
  NHL  CNE2  1  0.323396234685  0.473365563598
  NHL   CNA  1  0.315591961914  0.495057556250
  NHL  CNA2  1  0.307360057758  0.495057556250
  NHL   CNG  1  0.316269044940  0.620587489400
  NHL  NN1C  1  0.302905564168  0.836800000000
  NHL  NN2C  1  0.302905564168  0.836800000000
  NHL  NN3I  1  0.302905564168  0.836800000000
  NHL   NNG  1  0.302905564168  0.836800000000
  NHL   FNA  1  0.289542083396  0.648182492821
  NHL  ON2M  1  0.285087589805  0.591706954497
  NHL   CN6  1  0.307360057758  0.187114168357
  NHL  CN7E  1  0.307360057758  0.187114168357
  NHL  CT2P  1  0.307360057758  0.187114168357
  NHL  CTD1  1  0.307360057758  0.187114168357
  NHL  CPD1  1  0.307360057758  0.187114168357
  NHL  CC1A  1  0.324287133403  0.487934054561
  NHL  CC1B  1  0.324287133403  0.487934054561
  NHL   CC2  1  0.323396234685  0.473365563598
  NHL   NS1  1  0.302905564168  0.836800000000
  NHL   NS2  1  0.302905564168  0.836800000000
  NHL   NHL  1  0.276178602624  0.836800000000
  NHL  CTO1  1  0.307360057758  0.187114168357
  NHL  CEL3  1  0.324287133403  0.487934054561
  NHL  CTO2  1  0.307360057758  0.187114168357
  NHL  HN3B  1  0.218270185944  0.401315181871
  NHL  CN1A  1  0.316269044940  0.495057556250
  NHL  CN3A  1  0.298451070577  0.793858183809
  NHL  CN3B  1  0.298451070577  0.793858183809
  NHL  CN3C  1  0.298451070577  0.793858183809
 CTO1     C  1  0.347450500075  0.138767581228
 CTO1    CA  1  0.346773417049  0.110698234855
 CTO1    CC  1  0.347450500075  0.110698234855
 CTO1    CD  1  0.347450500075  0.110698234855
 CTO1   CE1  1  0.355468588538  0.109105371453
 CTO1   CE2  1  0.354577689820  0.105847757841
 CTO1   CP1  1  0.338541512893  0.041840000000
 CTO1   CP2  1  0.338541512893  0.041840000000
 CTO1   CP3  1  0.338541512893  0.041840000000
 CTO1  CPH1  1  0.329632525712  0.093557084179
 CTO1  CPH2  1  0.329632525712  0.093557084179
 CTO1    CS  1  0.365268474438  0.138767581228
 CTO1   CPT  1  0.334977918021  0.131646486622
 CTO1    CY  1  0.346559601357  0.113045454929
 CTO1   CAI  1  0.346559601357  0.113045454929
 CTO1    CT  1  0.338541512893  0.041840000000
 CTO1   CT1  1  0.338541512893  0.041840000000
 CTO1   CT2  1  0.338541512893  0.041840000000
 CTO1  CT2A  1  0.338541512893  0.041840000000
 CTO1   CT3  1  0.338541512893  0.041840000000
 CTO1    C3  1  0.371950214824  0.059170695450
 CTO1     H  1  0.189271432669  0.089736802707
 CTO1    HA  1  0.286869387241  0.062058748940
 CTO1   HB1  1  0.286869387241  0.062058748940
 CTO1   HB2  1  0.288651184677  0.070011711020
 CTO1   HE1  1  0.280633096214  0.073666921749
 CTO1   HE2  1  0.281523994932  0.067464972838
 CTO1    HC  1  0.189271432669  0.089736802707
 CTO1    HP  1  0.290272620344  0.072469005789
 CTO1   HR1  1  0.249451641079  0.089736802707
 CTO1   HR2  1  0.231633666716  0.089736802707
 CTO1   HR3  1  0.300054688270  0.036952087465
 CTO1    HS  1  0.209361198763  0.132309697301
 CTO1   HA1  1  0.288651184677  0.088756043175
 CTO1   HA2  1  0.288651184677  0.077149148019
 CTO1   HA3  1  0.288651184677  0.064818249282
 CTO1     N  1  0.334087019303  0.004184000000
 CTO1   NC2  1  0.334087019303  0.187114168357
 CTO1   NH1  1  0.307360057758  0.187114168357
 CTO1   NH2  1  0.334087019303  0.187114168357
 CTO1   NH3  1  0.334087019303  0.187114168357
 CTO1    NP  1  0.334087019303  0.187114168357
 CTO1   NR1  1  0.334087019303  0.187114168357
 CTO1   NR2  1  0.334087019303  0.187114168357
 CTO1   NR3  1  0.334087019303  0.187114168357
 CTO1    NY  1  0.334087019303  0.187114168357
 CTO1     O  1  0.293996576986  0.144938011577
 CTO1    OB  1  0.293996576986  0.144938011577
 CTO1    OC  1  0.320723538531  0.144938011577
 CTO1   OH1  1  0.326959829558  0.163176000000
 CTO1    OS  1  0.326959829558  0.163176000000
 CTO1     S  1  0.347450500075  0.280671252536
 CTO1    SM  1  0.345223253279  0.257919081884
 CTO1    SS  1  0.365268474438  0.286840588481
 CTO1  HGA1  1  0.288651184677  0.088756043175
 CTO1  HGA2  1  0.288651184677  0.078275472531
 CTO1  HGA3  1  0.288651184677  0.064818249282
 CTO1  HGA4  1  0.280633096214  0.073666921749
 CTO1  HGA5  1  0.281523994932  0.067464972838
 CTO1  HGA6  1  0.286869387241  0.070011711020
 CTO1  HGA7  1  0.285087589805  0.072469005789
 CTO1 HGAAM0  1  0.283305792369  0.070011711020
 CTO1 HGAAM1  1  0.283305792369  0.070011711020
 CTO1 HGAAM2  1  0.281523994932  0.083680000000
 CTO1  HGP1  1  0.189271432669  0.089736802707
 CTO1  HGP2  1  0.189271432669  0.089736802707
 CTO1  HGP3  1  0.209361198763  0.132309697301
 CTO1  HGP4  1  0.189271432669  0.089736802707
 CTO1  HGP5  1  0.231633666716  0.089736802707
 CTO1 HGPAM1  1  0.247224394284  0.039692909190
 CTO1 HGPAM2  1  0.247224394284  0.041840000000
 CTO1 HGPAM3  1  0.246778944925  0.045833423612
 CTO1 HGR51  1  0.290272620344  0.072469005789
 CTO1 HGR52  1  0.249451641079  0.089736802707
 CTO1 HGR53  1  0.231633666716  0.089736802707
 CTO1 HGR61  1  0.290272620344  0.072469005789
 CTO1 HGR62  1  0.267269615442  0.089736802707
 CTO1 HGR63  1  0.249451641079  0.089736802707
 CTO1 HGR71  1  0.290272620344  0.072469005789
 CTO1 HGTIP3  1  0.189271432669  0.089736802707
 CTO1 CG1T1  1  0.333196120584  0.170981810495
 CTO1 CG1T2  1  0.346782326036  0.134409982486
 CTO1 CG1N1  1  0.335868816739  0.177512086349
 CTO1 CG2D1  1  0.355468588538  0.109105371453
 CTO1 CG2D2  1  0.354577689820  0.105847757841
 CTO1 CG2D1O  1  0.355468588538  0.109105371453
 CTO1 CG2D2O  1  0.355468588538  0.109105371453
 CTO1 CG2DC1  1  0.355468588538  0.109105371453
 CTO1 CG2DC2  1  0.355468588538  0.109105371453
 CTO1 CG2DC3  1  0.354577689820  0.105847757841
 CTO1 CG2N1  1  0.347450500075  0.138767581228
 CTO1 CG2N2  1  0.347450500075  0.138767581228
 CTO1 CG2O1  1  0.347450500075  0.138767581228
 CTO1 CG2O2  1  0.320723538531  0.130979917850
 CTO1 CG2O3  1  0.347450500075  0.110698234855
 CTO1 CG2O4  1  0.329632525712  0.102486650838
 CTO1 CG2O5  1  0.347450500075  0.125520000000
 CTO1 CG2O6  1  0.347450500075  0.110698234855
 CTO1 CG2O7  1  0.308518226092  0.100764063435
 CTO1 CG2R51  1  0.356359487256  0.093557084179
 CTO1 CG2R52  1  0.365268474438  0.059170695450
 CTO1 CG2R53  1  0.365268474438  0.059170695450
 CTO1 CG2R57  1  0.356359487256  0.093557084179
 CTO1 CG25C1  1  0.355468588538  0.109105371453
 CTO1 CG25C2  1  0.355468588538  0.109105371453
 CTO1 CG251O  1  0.355468588538  0.109105371453
 CTO1 CG252O  1  0.355468588538  0.109105371453
 CTO1 CG2R61  1  0.346773417049  0.110698234855
 CTO1 CG2R62  1  0.338541512893  0.125520000000
 CTO1 CG2R63  1  0.338541512893  0.132309697301
 CTO1 CG2R64  1  0.356359487256  0.083680000000
 CTO1 CG2R66  1  0.338541512893  0.110698234855
 CTO1 CG2R67  1  0.346773417049  0.110698234855
 CTO1 CG2RC0  1  0.334977918021  0.131646486622
 CTO1 CG2R71  1  0.346987232741  0.108300154755
 CTO1 CG2RC7  1  0.334977918021  0.131646486622
 CTO1 CG301  1  0.338541512893  0.041840000000
 CTO1 CG302  1  0.374177461619  0.059170695450
 CTO1 CG311  1  0.338541512893  0.041840000000
 CTO1 CG312  1  0.351904993665  0.085746484010
 CTO1 CG314  1  0.338541512893  0.041840000000
 CTO1 CG321  1  0.338541512893  0.041840000000
 CTO1 CG322  1  0.338541512893  0.102486650838
 CTO1 CG323  1  0.365268474438  0.138767581228
 CTO1 CG324  1  0.338541512893  0.041840000000
 CTO1 CG331  1  0.338541512893  0.041840000000
 CTO1 CG334  1  0.338541512893  0.041840000000
 CTO1 CG3C50  1  0.338541512893  0.041840000000
 CTO1 CG3C51  1  0.338541512893  0.041840000000
 CTO1 CG3C52  1  0.338541512893  0.041840000000
 CTO1 CG3C53  1  0.338541512893  0.041840000000
 CTO1 CG3C54  1  0.338541512893  0.041840000000
 CTO1 CG3C31  1  0.338541512893  0.041840000000
 CTO1 CG3C41  1  0.338541512893  0.041840000000
 CTO1 CG3RC1  1  0.338541512893  0.041840000000
 CTO1 CG3AM0  1  0.344777803920  0.110698234855
 CTO1 CG3AM1  1  0.345668702638  0.116852760686
 CTO1 CG3AM2  1  0.346559601357  0.118341390899
 CTO1 NG1T1  1  0.328741626994  0.177512086349
 CTO1 NG2D1  1  0.334087019303  0.187114168357
 CTO1 NG2S0  1  0.334087019303  0.004184000000
 CTO1 NG2S1  1  0.307360057758  0.187114168357
 CTO1 NG2S2  1  0.334087019303  0.187114168357
 CTO1 NG2S3  1  0.334087019303  0.187114168357
 CTO1 NG2O1  1  0.334087019303  0.187114168357
 CTO1 NG2P1  1  0.334087019303  0.187114168357
 CTO1 NG2R43  1  0.334087019303  0.187114168357
 CTO1 NG2R50  1  0.334087019303  0.187114168357
 CTO1 NG2R51  1  0.334087019303  0.187114168357
 CTO1 NG2R52  1  0.334087019303  0.187114168357
 CTO1 NG2R53  1  0.334087019303  0.187114168357
 CTO1 NG2R57  1  0.334087019303  0.187114168357
 CTO1 NG2R60  1  0.337650614175  0.102486650838
 CTO1 NG2R61  1  0.334087019303  0.187114168357
 CTO1 NG2R62  1  0.352795892384  0.093557084179
 CTO1 NG2R67  1  0.334087019303  0.187114168357
 CTO1 NG2RC0  1  0.334087019303  0.187114168357
 CTO1 NG301  1  0.347450500075  0.078275472531
 CTO1 NG311  1  0.347450500075  0.088756043175
 CTO1 NG321  1  0.346559601357  0.102486650838
 CTO1 NG331  1  0.345668702638  0.110698234855
 CTO1 NG3C51  1  0.334087019303  0.187114168357
 CTO1 NG3N1  1  0.351904993665  0.102486650838
 CTO1 NG3P0  1  0.334087019303  0.187114168357
 CTO1 NG3P1  1  0.334087019303  0.187114168357
 CTO1 NG3P2  1  0.334087019303  0.187114168357
 CTO1 NG3P3  1  0.334087019303  0.187114168357
 CTO1 OG2D1  1  0.293996576986  0.144938011577
 CTO1 OG2D2  1  0.320723538531  0.144938011577
 CTO1 OG2D3  1  0.293996576986  0.144938011577
 CTO1 OG2D4  1  0.320723538531  0.144938011577
 CTO1 OG2D5  1  0.320010819556  0.169954883425
 CTO1 OG2N1  1  0.320723538531  0.144938011577
 CTO1 OG2P1  1  0.320723538531  0.144938011577
 CTO1 OG2R50  1  0.320723538531  0.144938011577
 CTO1 OG3R60  1  0.316269044940  0.132309697301
 CTO1 OG301  1  0.316269044940  0.132309697301
 CTO1 OG302  1  0.316269044940  0.132309697301
 CTO1 OG303  1  0.316269044940  0.132309697301
 CTO1 OG304  1  0.316269044940  0.132309697301
 CTO1 OG311  1  0.326514380198  0.183381431383
 CTO1 OG312  1  0.325178032121  0.144938011577
 CTO1 OG3C31  1  0.316269044940  0.132309697301
 CTO1 OG3C51  1  0.316269044940  0.132309697301
 CTO1 OG3C61  1  0.316269044940  0.132309697301
 CTO1 OGTIP3  1  0.326799467788  0.163176000000
 CTO1 SG2D1  1  0.351904993665  0.314496560236
 CTO1 SG2R50  1  0.347450500075  0.280671252536
 CTO1 SG311  1  0.347450500075  0.280671252536
 CTO1 SG301  1  0.345223253279  0.257919081884
 CTO1 SG302  1  0.365268474438  0.286840588481
 CTO1 SG3O1  1  0.356359487256  0.286840588481
 CTO1 SG3O2  1  0.347450500075  0.247528778125
 CTO1 SG3O3  1  0.347450500075  0.247528778125
 CTO1  FGA1  1  0.314487247504  0.153729976257
 CTO1  FGA2  1  0.314487247504  0.135577095411
 CTO1  FGA3  1  0.311814551349  0.130309939452
 CTO1  FGP1  1  0.311814551349  0.130309939452
 CTO1  FGR1  1  0.320723538531  0.144938011577
 CTO1 CLGA1  1  0.339432411611  0.245040988571
 CTO1 CLGA3  1  0.339432411611  0.232955260941
 CTO1 BRGA1  1  0.344777803920  0.289876023155
 CTO1 BRGA2  1  0.351904993665  0.304599797767
 CTO1 BRGA3  1  0.347450500075  0.307459952514
 CTO1   SOD  1  0.294954293108  0.090610410351
 CTO1   CLA  1  0.371504765465  0.162045623205
 CTO1   PG0  1  0.360813980847  0.320014464673
 CTO1   PG1  1  0.360813980847  0.320014464673
 CTO1   PG2  1  0.360813980847  0.320014464673
 CTO1  ALG1  1  0.347450500075  0.337324864189
 CTO1   LPH  1  0.169270756447  0.000000000000
 CTO1 CLGR1  1  0.334977918021  0.200657590935
 CTO1 BRGR1  1  0.345668702638  0.236682781799
 CTO1  IGR1  1  0.368832069310  0.301712530731
 CTO1 SG2P1  1  0.355798221064  0.332305491450
 CTO1 OG2S1  1  0.318906105146  0.157831660601
 CTO1 SG2P2  1  0.352314807076  0.329421919951
 CTO1 SEGD1  1  0.363041227642  0.330244580395
 CTO1 BG201  1  0.396449929572  0.081561175077
 CTO1 CC301  1  0.338541512893  0.041840000000
 CTO1 CC3062  1  0.338541512893  0.041840000000
 CTO1 CC311  1  0.338541512893  0.041840000000
 CTO1 CC3161  1  0.338541512893  0.041840000000
 CTO1 CC3162  1  0.338541512893  0.041840000000
 CTO1 CC3163  1  0.338541512893  0.041840000000
 CTO1 CC321  1  0.338541512893  0.041840000000
 CTO1 CC3261  1  0.338541512893  0.041840000000
 CTO1 CC3263  1  0.338541512893  0.041840000000
 CTO1 CC331  1  0.338541512893  0.041840000000
 CTO1 CC2O1  1  0.347450500075  0.138767581228
 CTO1 CC2O2  1  0.347450500075  0.110698234855
 CTO1 CC2O3  1  0.347450500075  0.125520000000
 CTO1 CC2O4  1  0.329632525712  0.102486650838
 CTO1 CC2O5  1  0.320723538531  0.130979917850
 CTO1 OC2D1  1  0.293996576986  0.144938011577
 CTO1 OC2D2  1  0.320723538531  0.144938011577
 CTO1 OC2D3  1  0.293996576986  0.144938011577
 CTO1 OC2D4  1  0.293996576986  0.144938011577
 CTO1 OC3C61  1  0.316269044940  0.132309697301
 CTO1 OC311  1  0.326514380198  0.183381431383
 CTO1 NC2D1  1  0.307360057758  0.187114168357
 CTO1  HCP1  1  0.189271432669  0.089736802707
 CTO1  HCA1  1  0.288651184677  0.088756043175
 CTO1  HCA2  1  0.288651184677  0.078275472531
 CTO1  HCA3  1  0.288651184677  0.064818249282
 CTO1 CC312  1  0.338541512893  0.041840000000
 CTO1 CC322  1  0.338541512893  0.041840000000
 CTO1  HCR1  1  0.240542653898  0.089736802707
 CTO1 HCA3M  1  0.288651184677  0.064818249282
 CTO1 CC321C  1  0.338541512893  0.041840000000
 CTO1 CC321D  1  0.338541512893  0.041840000000
 CTO1 CC311C  1  0.338541512893  0.041840000000
 CTO1 CC311D  1  0.338541512893  0.041840000000
 CTO1 OC301  1  0.316269044940  0.132309697301
 CTO1 OC302  1  0.316269044940  0.132309697301
 CTO1 HCP1M  1  0.189271432669  0.089736802707
 CTO1 OC311M  1  0.326514380198  0.183381431383
 CTO1 OC3C5M  1  0.316269044940  0.132309697301
 CTO1 CC322C  1  0.338541512893  0.041840000000
 CTO1 HCA2C2  1  0.285087589805  0.078275472531
 CTO1 CC312C  1  0.338541512893  0.041840000000
 CTO1 HCA1C2  1  0.288651184677  0.088756043175
 CTO1 OC3C51  1  0.316269044940  0.132309697301
 CTO1 CC3152  1  0.338541512893  0.041840000000
 CTO1 CC3051  1  0.338541512893  0.041840000000
 CTO1 CC3251  1  0.338541512893  0.041840000000
 CTO1 CC3151  1  0.338541512893  0.041840000000
 CTO1 CC3153  1  0.338541512893  0.041840000000
 CTO1 OC2DP  1  0.320723538531  0.144938011577
 CTO1 OC312  1  0.326959829558  0.163176000000
 CTO1 OC30P  1  0.326959829558  0.163176000000
 CTO1    PC  1  0.360813980847  0.320014464673
 CTO1    SC  1  0.356359487256  0.286840588481
 CTO1 CC312D  1  0.338541512893  0.041840000000
 CTO1 OC303  1  0.316269044940  0.132309697301
 CTO1 NC311  1  0.347450500075  0.088756043175
 CTO1   HN1  1  0.189271432669  0.089736802707
 CTO1   HN2  1  0.189271432669  0.089736802707
 CTO1   HN3  1  0.267269615442  0.089736802707
 CTO1   HN4  1  0.189271432669  0.089736802707
 CTO1   HN5  1  0.189271432669  0.089736802707
 CTO1   HN6  1  0.286869387241  0.062058748940
 CTO1   HN7  1  0.286869387241  0.062058748940
 CTO1   HN8  1  0.288651184677  0.070011711020
 CTO1   HN9  1  0.288651184677  0.064818249282
 CTO1   NN1  1  0.334087019303  0.187114168357
 CTO1   NN2  1  0.334087019303  0.187114168357
 CTO1  NN2B  1  0.334087019303  0.187114168357
 CTO1  NN2G  1  0.334087019303  0.187114168357
 CTO1  NN2U  1  0.334087019303  0.187114168357
 CTO1   NN3  1  0.334087019303  0.187114168357
 CTO1  NN3A  1  0.334087019303  0.187114168357
 CTO1  NN3G  1  0.334087019303  0.187114168357
 CTO1   NN4  1  0.334087019303  0.187114168357
 CTO1   NN6  1  0.334087019303  0.187114168357
 CTO1   ON1  1  0.320723538531  0.144938011577
 CTO1  ON1C  1  0.320723538531  0.144938011577
 CTO1   ON2  1  0.326959829558  0.163176000000
 CTO1   ON3  1  0.320723538531  0.144938011577
 CTO1   ON4  1  0.326959829558  0.163176000000
 CTO1   ON5  1  0.326959829558  0.163176000000
 CTO1   ON6  1  0.326959829558  0.163176000000
 CTO1  ON6B  1  0.326959829558  0.163176000000
 CTO1   CN1  1  0.338541512893  0.132309697301
 CTO1  CN1T  1  0.338541512893  0.132309697301
 CTO1   CN2  1  0.338541512893  0.132309697301
 CTO1   CN3  1  0.338541512893  0.125520000000
 CTO1  CN3T  1  0.338541512893  0.125520000000
 CTO1   CN4  1  0.338541512893  0.114583559030
 CTO1   CN5  1  0.338541512893  0.114583559030
 CTO1  CN5G  1  0.338541512893  0.114583559030
 CTO1   CN7  1  0.338541512893  0.041840000000
 CTO1  CN7B  1  0.338541512893  0.041840000000
 CTO1   CN8  1  0.338541512893  0.041840000000
 CTO1  CN8B  1  0.338541512893  0.041840000000
 CTO1   CN9  1  0.338541512893  0.041840000000
 CTO1     P  1  0.360813980847  0.320014464673
 CTO1    P2  1  0.360813980847  0.320014464673
 CTO1    P3  1  0.360813980847  0.320014464673
 CTO1    P4  1  0.360813980847  0.320014464673
 CTO1   HOL  1  0.189271432669  0.089736802707
 CTO1  HAL1  1  0.286869387241  0.062058748940
 CTO1  HAL2  1  0.288651184677  0.070011711020
 CTO1  HAL3  1  0.288651184677  0.064818249282
 CTO1   HBL  1  0.286869387241  0.062058748940
 CTO1   HCL  1  0.189271432669  0.089736802707
 CTO1    HL  1  0.231633666716  0.089736802707
 CTO1  HEL1  1  0.280633096214  0.073666921749
 CTO1  HEL2  1  0.281523994932  0.067464972838
 CTO1    CL  1  0.347450500075  0.110698234855
 CTO1   CCL  1  0.347450500075  0.110698234855
 CTO1  CTL1  1  0.338541512893  0.041840000000
 CTO1  CTL2  1  0.338541512893  0.041840000000
 CTO1  CTL3  1  0.338541512893  0.041840000000
 CTO1  CTL5  1  0.338541512893  0.041840000000
 CTO1  CEL1  1  0.355468588538  0.109105371453
 CTO1  CEL2  1  0.354577689820  0.105847757841
 CTO1  CRL1  1  0.338541512893  0.041840000000
 CTO1  CRL2  1  0.338541512893  0.041840000000
 CTO1   OBL  1  0.293996576986  0.144938011577
 CTO1   OCL  1  0.320723538531  0.144938011577
 CTO1   O2L  1  0.320723538531  0.144938011577
 CTO1   OHL  1  0.326959829558  0.163176000000
 CTO1   OSL  1  0.316269044940  0.132309697301
 CTO1  OSLP  1  0.316269044940  0.132309697301
 CTO1  NH3L  1  0.334087019303  0.187114168357
 CTO1   NTL  1  0.334087019303  0.187114168357
 CTO1    SL  1  0.356359487256  0.286840588481
 CTO1    PL  1  0.360813980847  0.320014464673
 CTO1 HCA1A  1  0.288651184677  0.088756043175
 CTO1 HCA2A  1  0.288651184677  0.078275472531
 CTO1 HCA3A  1  0.288651184677  0.064818249282
 CTO1 CC30A  1  0.338541512893  0.041840000000
 CTO1 CC31A  1  0.338541512893  0.041840000000
 CTO1 CC32A  1  0.338541512893  0.041840000000
 CTO1 CC33A  1  0.338541512893  0.041840000000
 CTO1 CC326A  1  0.338541512893  0.041840000000
 CTO1 HCA25A  1  0.285087589805  0.078275472531
 CTO1 CC325A  1  0.338541512893  0.041840000000
 CTO1 CC325B  1  0.338541512893  0.041840000000
 CTO1 OC305A  1  0.316269044940  0.132309697301
 CTO1 OC30A  1  0.316269044940  0.132309697301
 CTO1  HSIO  1  0.189271432669  0.089736802707
 CTO1  HSIA  1  0.286869387241  0.062058748940
 CTO1   HAL  1  0.286869387241  0.062058748940
 CTO1    AL  1  0.365268474438  0.337324864189
 CTO1    SI  1  0.365268474438  0.324091246411
 CTO1  SIH3  1  0.365268474438  0.324091246411
 CTO1  OSIH  1  0.326959829558  0.163176000000
 CTO1  OSIE  1  0.326959829558  0.163176000000
 CTO1  OSIA  1  0.326959829558  0.163176000000
 CTO1   OAL  1  0.326959829558  0.163176000000
 CTO1    HT  1  0.189271432669  0.089736802707
 CTO1    OT  1  0.326799467788  0.163176000000
 CTO1   DUM  1  0.169270756447  0.000000000000
 CTO1    CM  1  0.356359487256  0.138767581228
 CTO1   CPA  1  0.329632525712  0.125520000000
 CTO1   CPB  1  0.329632525712  0.125520000000
 CTO1   CPM  1  0.329632525712  0.125520000000
 CTO1   CST  1  0.308518226092  0.100764063435
 CTO1  CT1X  1  0.338541512893  0.041840000000
 CTO1  CT2X  1  0.338541512893  0.041840000000
 CTO1  CT3X  1  0.338541512893  0.041840000000
 CTO1    HB  1  0.286869387241  0.062058748940
 CTO1   NPH  1  0.334087019303  0.187114168357
 CTO1    OM  1  0.320723538531  0.144938011577
 CTO1   OST  1  0.320010819556  0.169954883425
 CTO1   POT  1  0.326403017859  0.123410269913
 CTO1   CAL  1  0.291056611216  0.144938011577
 CTO1    MG  1  0.274842254546  0.051243325419
 CTO1   CES  1  0.356359487256  0.182376331798
 CTO1    ZN  1  0.266378716724  0.209200000000
 CTO1    FE  1  0.227179173126  0.000000000000
 CTO1    HE  1  0.301123766731  0.061020452073
 CTO1    NE  1  0.305578260322  0.122698965603
 CTO1  CLAL  1  0.339272049842  0.072469005789
 CTO1    AG  1  0.300901042052  0.893457908130
 CTO1    AU  1  0.300722862308  0.962320000000
 CTO1    CU  1  0.285800308779  0.908997471504
 CTO1    NI  1  0.282949432881  0.994525446633
 CTO1    PB  1  0.328073452955  0.716185437439
 CTO1    PD  1  0.294842930769  1.037598257516
 CTO1    PT  1  0.296001099102  1.168527606863
 CTO1   CAP  1  0.346773417049  0.110698234855
 CTO1    FA  1  0.320723538531  0.144938011577
 CTO1    CN  1  0.325178032121  0.187114168357
 CTO1    NC  1  0.334087019303  0.324091246411
 CTO1   OCA  1  0.293996576986  0.144938011577
 CTO1   COA  1  0.347450500075  0.138767581228
 CTO1   CF1  1  0.338541512893  0.102486650838
 CTO1   CF2  1  0.351904993665  0.085746484010
 CTO1   CF3  1  0.374177461619  0.059170695450
 CTO1   HF1  1  0.286869387241  0.070011711020
 CTO1   HF2  1  0.285087589805  0.072469005789
 CTO1    F1  1  0.314487247504  0.153729976257
 CTO1    F2  1  0.314487247504  0.135577095411
 CTO1    F3  1  0.311814551349  0.130309939452
 CTO1    OX  1  0.320723538531  0.144938011577
 CTO1    HX  1  0.189271432669  0.089736802707
 CTO1  HPER  1  0.189271432669  0.089736802707
 CTO1  OPER  1  0.318427692534  0.188901923946
 CTO1   LIT  1  0.284864865125  0.020196198771
 CTO1   RUB  1  0.338541512893  0.162045623205
 CTO1   BAR  1  0.337650614175  0.162045623205
 CTO1   CAD  1  0.290165712498  0.144938011577
 CTO1  ON2B  1  0.326959829558  0.163176000000
 CTO1    SP  1  0.365268474438  0.280671252536
 CTO1   HNP  1  0.290272620344  0.072469005789
 CTO1  HNE1  1  0.280633096214  0.073666921749
 CTO1  HNE2  1  0.281523994932  0.067464972838
 CTO1  CN3D  1  0.338541512893  0.125520000000
 CTO1  CNE1  1  0.355468588538  0.109105371453
 CTO1  CNE2  1  0.354577689820  0.105847757841
 CTO1   CNA  1  0.346773417049  0.110698234855
 CTO1  CNA2  1  0.338541512893  0.110698234855
 CTO1   CNG  1  0.347450500075  0.138767581228
 CTO1  NN1C  1  0.334087019303  0.187114168357
 CTO1  NN2C  1  0.334087019303  0.187114168357
 CTO1  NN3I  1  0.334087019303  0.187114168357
 CTO1   NNG  1  0.334087019303  0.187114168357
 CTO1   FNA  1  0.320723538531  0.144938011577
 CTO1  ON2M  1  0.316269044940  0.132309697301
 CTO1   CN6  1  0.338541512893  0.041840000000
 CTO1  CN7E  1  0.338541512893  0.041840000000
 CTO1  CT2P  1  0.338541512893  0.041840000000
 CTO1  CTD1  1  0.338541512893  0.041840000000
 CTO1  CPD1  1  0.338541512893  0.041840000000
 CTO1  CC1A  1  0.355468588538  0.109105371453
 CTO1  CC1B  1  0.355468588538  0.109105371453
 CTO1   CC2  1  0.354577689820  0.105847757841
 CTO1   NS1  1  0.334087019303  0.187114168357
 CTO1   NS2  1  0.334087019303  0.187114168357
 CTO1   NHL  1  0.307360057758  0.187114168357
 CTO1  CTO1  1  0.338541512893  0.041840000000
 CTO1  CEL3  1  0.355468588538  0.109105371453
 CTO1  CTO2  1  0.338541512893  0.041840000000
 CTO1  HN3B  1  0.249451641079  0.089736802707
 CTO1  CN1A  1  0.347450500075  0.110698234855
 CTO1  CN3A  1  0.329632525712  0.177512086349
 CTO1  CN3B  1  0.329632525712  0.177512086349
 CTO1  CN3C  1  0.329632525712  0.177512086349
 CTO2     C  1  0.347450500075  0.138767581228
 CTO2    CA  1  0.346773417049  0.110698234855
 CTO2    CC  1  0.347450500075  0.110698234855
 CTO2    CD  1  0.347450500075  0.110698234855
 CTO2   CE1  1  0.355468588538  0.109105371453
 CTO2   CE2  1  0.354577689820  0.105847757841
 CTO2   CP1  1  0.338541512893  0.041840000000
 CTO2   CP2  1  0.338541512893  0.041840000000
 CTO2   CP3  1  0.338541512893  0.041840000000
 CTO2  CPH1  1  0.329632525712  0.093557084179
 CTO2  CPH2  1  0.329632525712  0.093557084179
 CTO2    CS  1  0.365268474438  0.138767581228
 CTO2   CPT  1  0.334977918021  0.131646486622
 CTO2    CY  1  0.346559601357  0.113045454929
 CTO2   CAI  1  0.346559601357  0.113045454929
 CTO2    CT  1  0.338541512893  0.041840000000
 CTO2   CT1  1  0.338541512893  0.041840000000
 CTO2   CT2  1  0.338541512893  0.041840000000
 CTO2  CT2A  1  0.338541512893  0.041840000000
 CTO2   CT3  1  0.338541512893  0.041840000000
 CTO2    C3  1  0.371950214824  0.059170695450
 CTO2     H  1  0.189271432669  0.089736802707
 CTO2    HA  1  0.286869387241  0.062058748940
 CTO2   HB1  1  0.286869387241  0.062058748940
 CTO2   HB2  1  0.288651184677  0.070011711020
 CTO2   HE1  1  0.280633096214  0.073666921749
 CTO2   HE2  1  0.281523994932  0.067464972838
 CTO2    HC  1  0.189271432669  0.089736802707
 CTO2    HP  1  0.290272620344  0.072469005789
 CTO2   HR1  1  0.249451641079  0.089736802707
 CTO2   HR2  1  0.231633666716  0.089736802707
 CTO2   HR3  1  0.300054688270  0.036952087465
 CTO2    HS  1  0.209361198763  0.132309697301
 CTO2   HA1  1  0.288651184677  0.088756043175
 CTO2   HA2  1  0.288651184677  0.077149148019
 CTO2   HA3  1  0.288651184677  0.064818249282
 CTO2     N  1  0.334087019303  0.004184000000
 CTO2   NC2  1  0.334087019303  0.187114168357
 CTO2   NH1  1  0.307360057758  0.187114168357
 CTO2   NH2  1  0.334087019303  0.187114168357
 CTO2   NH3  1  0.334087019303  0.187114168357
 CTO2    NP  1  0.334087019303  0.187114168357
 CTO2   NR1  1  0.334087019303  0.187114168357
 CTO2   NR2  1  0.334087019303  0.187114168357
 CTO2   NR3  1  0.334087019303  0.187114168357
 CTO2    NY  1  0.334087019303  0.187114168357
 CTO2     O  1  0.293996576986  0.144938011577
 CTO2    OB  1  0.293996576986  0.144938011577
 CTO2    OC  1  0.320723538531  0.144938011577
 CTO2   OH1  1  0.326959829558  0.163176000000
 CTO2    OS  1  0.326959829558  0.163176000000
 CTO2     S  1  0.347450500075  0.280671252536
 CTO2    SM  1  0.345223253279  0.257919081884
 CTO2    SS  1  0.365268474438  0.286840588481
 CTO2  HGA1  1  0.288651184677  0.088756043175
 CTO2  HGA2  1  0.288651184677  0.078275472531
 CTO2  HGA3  1  0.288651184677  0.064818249282
 CTO2  HGA4  1  0.280633096214  0.073666921749
 CTO2  HGA5  1  0.281523994932  0.067464972838
 CTO2  HGA6  1  0.286869387241  0.070011711020
 CTO2  HGA7  1  0.285087589805  0.072469005789
 CTO2 HGAAM0  1  0.283305792369  0.070011711020
 CTO2 HGAAM1  1  0.283305792369  0.070011711020
 CTO2 HGAAM2  1  0.281523994932  0.083680000000
 CTO2  HGP1  1  0.189271432669  0.089736802707
 CTO2  HGP2  1  0.189271432669  0.089736802707
 CTO2  HGP3  1  0.209361198763  0.132309697301
 CTO2  HGP4  1  0.189271432669  0.089736802707
 CTO2  HGP5  1  0.231633666716  0.089736802707
 CTO2 HGPAM1  1  0.247224394284  0.039692909190
 CTO2 HGPAM2  1  0.247224394284  0.041840000000
 CTO2 HGPAM3  1  0.246778944925  0.045833423612
 CTO2 HGR51  1  0.290272620344  0.072469005789
 CTO2 HGR52  1  0.249451641079  0.089736802707
 CTO2 HGR53  1  0.231633666716  0.089736802707
 CTO2 HGR61  1  0.290272620344  0.072469005789
 CTO2 HGR62  1  0.267269615442  0.089736802707
 CTO2 HGR63  1  0.249451641079  0.089736802707
 CTO2 HGR71  1  0.290272620344  0.072469005789
 CTO2 HGTIP3  1  0.189271432669  0.089736802707
 CTO2 CG1T1  1  0.333196120584  0.170981810495
 CTO2 CG1T2  1  0.346782326036  0.134409982486
 CTO2 CG1N1  1  0.335868816739  0.177512086349
 CTO2 CG2D1  1  0.355468588538  0.109105371453
 CTO2 CG2D2  1  0.354577689820  0.105847757841
 CTO2 CG2D1O  1  0.355468588538  0.109105371453
 CTO2 CG2D2O  1  0.355468588538  0.109105371453
 CTO2 CG2DC1  1  0.355468588538  0.109105371453
 CTO2 CG2DC2  1  0.355468588538  0.109105371453
 CTO2 CG2DC3  1  0.354577689820  0.105847757841
 CTO2 CG2N1  1  0.347450500075  0.138767581228
 CTO2 CG2N2  1  0.347450500075  0.138767581228
 CTO2 CG2O1  1  0.347450500075  0.138767581228
 CTO2 CG2O2  1  0.320723538531  0.130979917850
 CTO2 CG2O3  1  0.347450500075  0.110698234855
 CTO2 CG2O4  1  0.329632525712  0.102486650838
 CTO2 CG2O5  1  0.347450500075  0.125520000000
 CTO2 CG2O6  1  0.347450500075  0.110698234855
 CTO2 CG2O7  1  0.308518226092  0.100764063435
 CTO2 CG2R51  1  0.356359487256  0.093557084179
 CTO2 CG2R52  1  0.365268474438  0.059170695450
 CTO2 CG2R53  1  0.365268474438  0.059170695450
 CTO2 CG2R57  1  0.356359487256  0.093557084179
 CTO2 CG25C1  1  0.355468588538  0.109105371453
 CTO2 CG25C2  1  0.355468588538  0.109105371453
 CTO2 CG251O  1  0.355468588538  0.109105371453
 CTO2 CG252O  1  0.355468588538  0.109105371453
 CTO2 CG2R61  1  0.346773417049  0.110698234855
 CTO2 CG2R62  1  0.338541512893  0.125520000000
 CTO2 CG2R63  1  0.338541512893  0.132309697301
 CTO2 CG2R64  1  0.356359487256  0.083680000000
 CTO2 CG2R66  1  0.338541512893  0.110698234855
 CTO2 CG2R67  1  0.346773417049  0.110698234855
 CTO2 CG2RC0  1  0.334977918021  0.131646486622
 CTO2 CG2R71  1  0.346987232741  0.108300154755
 CTO2 CG2RC7  1  0.334977918021  0.131646486622
 CTO2 CG301  1  0.338541512893  0.041840000000
 CTO2 CG302  1  0.374177461619  0.059170695450
 CTO2 CG311  1  0.338541512893  0.041840000000
 CTO2 CG312  1  0.351904993665  0.085746484010
 CTO2 CG314  1  0.338541512893  0.041840000000
 CTO2 CG321  1  0.338541512893  0.041840000000
 CTO2 CG322  1  0.338541512893  0.102486650838
 CTO2 CG323  1  0.365268474438  0.138767581228
 CTO2 CG324  1  0.338541512893  0.041840000000
 CTO2 CG331  1  0.338541512893  0.041840000000
 CTO2 CG334  1  0.338541512893  0.041840000000
 CTO2 CG3C50  1  0.338541512893  0.041840000000
 CTO2 CG3C51  1  0.338541512893  0.041840000000
 CTO2 CG3C52  1  0.338541512893  0.041840000000
 CTO2 CG3C53  1  0.338541512893  0.041840000000
 CTO2 CG3C54  1  0.338541512893  0.041840000000
 CTO2 CG3C31  1  0.338541512893  0.041840000000
 CTO2 CG3C41  1  0.338541512893  0.041840000000
 CTO2 CG3RC1  1  0.338541512893  0.041840000000
 CTO2 CG3AM0  1  0.344777803920  0.110698234855
 CTO2 CG3AM1  1  0.345668702638  0.116852760686
 CTO2 CG3AM2  1  0.346559601357  0.118341390899
 CTO2 NG1T1  1  0.328741626994  0.177512086349
 CTO2 NG2D1  1  0.334087019303  0.187114168357
 CTO2 NG2S0  1  0.334087019303  0.004184000000
 CTO2 NG2S1  1  0.307360057758  0.187114168357
 CTO2 NG2S2  1  0.334087019303  0.187114168357
 CTO2 NG2S3  1  0.334087019303  0.187114168357
 CTO2 NG2O1  1  0.334087019303  0.187114168357
 CTO2 NG2P1  1  0.334087019303  0.187114168357
 CTO2 NG2R43  1  0.334087019303  0.187114168357
 CTO2 NG2R50  1  0.334087019303  0.187114168357
 CTO2 NG2R51  1  0.334087019303  0.187114168357
 CTO2 NG2R52  1  0.334087019303  0.187114168357
 CTO2 NG2R53  1  0.334087019303  0.187114168357
 CTO2 NG2R57  1  0.334087019303  0.187114168357
 CTO2 NG2R60  1  0.337650614175  0.102486650838
 CTO2 NG2R61  1  0.334087019303  0.187114168357
 CTO2 NG2R62  1  0.352795892384  0.093557084179
 CTO2 NG2R67  1  0.334087019303  0.187114168357
 CTO2 NG2RC0  1  0.334087019303  0.187114168357
 CTO2 NG301  1  0.347450500075  0.078275472531
 CTO2 NG311  1  0.347450500075  0.088756043175
 CTO2 NG321  1  0.346559601357  0.102486650838
 CTO2 NG331  1  0.345668702638  0.110698234855
 CTO2 NG3C51  1  0.334087019303  0.187114168357
 CTO2 NG3N1  1  0.351904993665  0.102486650838
 CTO2 NG3P0  1  0.334087019303  0.187114168357
 CTO2 NG3P1  1  0.334087019303  0.187114168357
 CTO2 NG3P2  1  0.334087019303  0.187114168357
 CTO2 NG3P3  1  0.334087019303  0.187114168357
 CTO2 OG2D1  1  0.293996576986  0.144938011577
 CTO2 OG2D2  1  0.320723538531  0.144938011577
 CTO2 OG2D3  1  0.293996576986  0.144938011577
 CTO2 OG2D4  1  0.320723538531  0.144938011577
 CTO2 OG2D5  1  0.320010819556  0.169954883425
 CTO2 OG2N1  1  0.320723538531  0.144938011577
 CTO2 OG2P1  1  0.320723538531  0.144938011577
 CTO2 OG2R50  1  0.320723538531  0.144938011577
 CTO2 OG3R60  1  0.316269044940  0.132309697301
 CTO2 OG301  1  0.316269044940  0.132309697301
 CTO2 OG302  1  0.316269044940  0.132309697301
 CTO2 OG303  1  0.316269044940  0.132309697301
 CTO2 OG304  1  0.316269044940  0.132309697301
 CTO2 OG311  1  0.326514380198  0.183381431383
 CTO2 OG312  1  0.325178032121  0.144938011577
 CTO2 OG3C31  1  0.316269044940  0.132309697301
 CTO2 OG3C51  1  0.316269044940  0.132309697301
 CTO2 OG3C61  1  0.316269044940  0.132309697301
 CTO2 OGTIP3  1  0.326799467788  0.163176000000
 CTO2 SG2D1  1  0.351904993665  0.314496560236
 CTO2 SG2R50  1  0.347450500075  0.280671252536
 CTO2 SG311  1  0.347450500075  0.280671252536
 CTO2 SG301  1  0.345223253279  0.257919081884
 CTO2 SG302  1  0.365268474438  0.286840588481
 CTO2 SG3O1  1  0.356359487256  0.286840588481
 CTO2 SG3O2  1  0.347450500075  0.247528778125
 CTO2 SG3O3  1  0.347450500075  0.247528778125
 CTO2  FGA1  1  0.314487247504  0.153729976257
 CTO2  FGA2  1  0.314487247504  0.135577095411
 CTO2  FGA3  1  0.311814551349  0.130309939452
 CTO2  FGP1  1  0.311814551349  0.130309939452
 CTO2  FGR1  1  0.320723538531  0.144938011577
 CTO2 CLGA1  1  0.339432411611  0.245040988571
 CTO2 CLGA3  1  0.339432411611  0.232955260941
 CTO2 BRGA1  1  0.344777803920  0.289876023155
 CTO2 BRGA2  1  0.351904993665  0.304599797767
 CTO2 BRGA3  1  0.347450500075  0.307459952514
 CTO2   SOD  1  0.294954293108  0.090610410351
 CTO2   CLA  1  0.371504765465  0.162045623205
 CTO2   PG0  1  0.360813980847  0.320014464673
 CTO2   PG1  1  0.360813980847  0.320014464673
 CTO2   PG2  1  0.360813980847  0.320014464673
 CTO2  ALG1  1  0.347450500075  0.337324864189
 CTO2   LPH  1  0.169270756447  0.000000000000
 CTO2 CLGR1  1  0.334977918021  0.200657590935
 CTO2 BRGR1  1  0.345668702638  0.236682781799
 CTO2  IGR1  1  0.368832069310  0.301712530731
 CTO2 SG2P1  1  0.355798221064  0.332305491450
 CTO2 OG2S1  1  0.318906105146  0.157831660601
 CTO2 SG2P2  1  0.352314807076  0.329421919951
 CTO2 SEGD1  1  0.363041227642  0.330244580395
 CTO2 BG201  1  0.396449929572  0.081561175077
 CTO2 CC301  1  0.338541512893  0.041840000000
 CTO2 CC3062  1  0.338541512893  0.041840000000
 CTO2 CC311  1  0.338541512893  0.041840000000
 CTO2 CC3161  1  0.338541512893  0.041840000000
 CTO2 CC3162  1  0.338541512893  0.041840000000
 CTO2 CC3163  1  0.338541512893  0.041840000000
 CTO2 CC321  1  0.338541512893  0.041840000000
 CTO2 CC3261  1  0.338541512893  0.041840000000
 CTO2 CC3263  1  0.338541512893  0.041840000000
 CTO2 CC331  1  0.338541512893  0.041840000000
 CTO2 CC2O1  1  0.347450500075  0.138767581228
 CTO2 CC2O2  1  0.347450500075  0.110698234855
 CTO2 CC2O3  1  0.347450500075  0.125520000000
 CTO2 CC2O4  1  0.329632525712  0.102486650838
 CTO2 CC2O5  1  0.320723538531  0.130979917850
 CTO2 OC2D1  1  0.293996576986  0.144938011577
 CTO2 OC2D2  1  0.320723538531  0.144938011577
 CTO2 OC2D3  1  0.293996576986  0.144938011577
 CTO2 OC2D4  1  0.293996576986  0.144938011577
 CTO2 OC3C61  1  0.316269044940  0.132309697301
 CTO2 OC311  1  0.326514380198  0.183381431383
 CTO2 NC2D1  1  0.307360057758  0.187114168357
 CTO2  HCP1  1  0.189271432669  0.089736802707
 CTO2  HCA1  1  0.288651184677  0.088756043175
 CTO2  HCA2  1  0.288651184677  0.078275472531
 CTO2  HCA3  1  0.288651184677  0.064818249282
 CTO2 CC312  1  0.338541512893  0.041840000000
 CTO2 CC322  1  0.338541512893  0.041840000000
 CTO2  HCR1  1  0.240542653898  0.089736802707
 CTO2 HCA3M  1  0.288651184677  0.064818249282
 CTO2 CC321C  1  0.338541512893  0.041840000000
 CTO2 CC321D  1  0.338541512893  0.041840000000
 CTO2 CC311C  1  0.338541512893  0.041840000000
 CTO2 CC311D  1  0.338541512893  0.041840000000
 CTO2 OC301  1  0.316269044940  0.132309697301
 CTO2 OC302  1  0.316269044940  0.132309697301
 CTO2 HCP1M  1  0.189271432669  0.089736802707
 CTO2 OC311M  1  0.326514380198  0.183381431383
 CTO2 OC3C5M  1  0.316269044940  0.132309697301
 CTO2 CC322C  1  0.338541512893  0.041840000000
 CTO2 HCA2C2  1  0.285087589805  0.078275472531
 CTO2 CC312C  1  0.338541512893  0.041840000000
 CTO2 HCA1C2  1  0.288651184677  0.088756043175
 CTO2 OC3C51  1  0.316269044940  0.132309697301
 CTO2 CC3152  1  0.338541512893  0.041840000000
 CTO2 CC3051  1  0.338541512893  0.041840000000
 CTO2 CC3251  1  0.338541512893  0.041840000000
 CTO2 CC3151  1  0.338541512893  0.041840000000
 CTO2 CC3153  1  0.338541512893  0.041840000000
 CTO2 OC2DP  1  0.320723538531  0.144938011577
 CTO2 OC312  1  0.326959829558  0.163176000000
 CTO2 OC30P  1  0.326959829558  0.163176000000
 CTO2    PC  1  0.360813980847  0.320014464673
 CTO2    SC  1  0.356359487256  0.286840588481
 CTO2 CC312D  1  0.338541512893  0.041840000000
 CTO2 OC303  1  0.316269044940  0.132309697301
 CTO2 NC311  1  0.347450500075  0.088756043175
 CTO2   HN1  1  0.189271432669  0.089736802707
 CTO2   HN2  1  0.189271432669  0.089736802707
 CTO2   HN3  1  0.267269615442  0.089736802707
 CTO2   HN4  1  0.189271432669  0.089736802707
 CTO2   HN5  1  0.189271432669  0.089736802707
 CTO2   HN6  1  0.286869387241  0.062058748940
 CTO2   HN7  1  0.286869387241  0.062058748940
 CTO2   HN8  1  0.288651184677  0.070011711020
 CTO2   HN9  1  0.288651184677  0.064818249282
 CTO2   NN1  1  0.334087019303  0.187114168357
 CTO2   NN2  1  0.334087019303  0.187114168357
 CTO2  NN2B  1  0.334087019303  0.187114168357
 CTO2  NN2G  1  0.334087019303  0.187114168357
 CTO2  NN2U  1  0.334087019303  0.187114168357
 CTO2   NN3  1  0.334087019303  0.187114168357
 CTO2  NN3A  1  0.334087019303  0.187114168357
 CTO2  NN3G  1  0.334087019303  0.187114168357
 CTO2   NN4  1  0.334087019303  0.187114168357
 CTO2   NN6  1  0.334087019303  0.187114168357
 CTO2   ON1  1  0.320723538531  0.144938011577
 CTO2  ON1C  1  0.320723538531  0.144938011577
 CTO2   ON2  1  0.326959829558  0.163176000000
 CTO2   ON3  1  0.320723538531  0.144938011577
 CTO2   ON4  1  0.326959829558  0.163176000000
 CTO2   ON5  1  0.326959829558  0.163176000000
 CTO2   ON6  1  0.326959829558  0.163176000000
 CTO2  ON6B  1  0.326959829558  0.163176000000
 CTO2   CN1  1  0.338541512893  0.132309697301
 CTO2  CN1T  1  0.338541512893  0.132309697301
 CTO2   CN2  1  0.338541512893  0.132309697301
 CTO2   CN3  1  0.338541512893  0.125520000000
 CTO2  CN3T  1  0.338541512893  0.125520000000
 CTO2   CN4  1  0.338541512893  0.114583559030
 CTO2   CN5  1  0.338541512893  0.114583559030
 CTO2  CN5G  1  0.338541512893  0.114583559030
 CTO2   CN7  1  0.338541512893  0.041840000000
 CTO2  CN7B  1  0.338541512893  0.041840000000
 CTO2   CN8  1  0.338541512893  0.041840000000
 CTO2  CN8B  1  0.338541512893  0.041840000000
 CTO2   CN9  1  0.338541512893  0.041840000000
 CTO2     P  1  0.360813980847  0.320014464673
 CTO2    P2  1  0.360813980847  0.320014464673
 CTO2    P3  1  0.360813980847  0.320014464673
 CTO2    P4  1  0.360813980847  0.320014464673
 CTO2   HOL  1  0.189271432669  0.089736802707
 CTO2  HAL1  1  0.286869387241  0.062058748940
 CTO2  HAL2  1  0.288651184677  0.070011711020
 CTO2  HAL3  1  0.288651184677  0.064818249282
 CTO2   HBL  1  0.286869387241  0.062058748940
 CTO2   HCL  1  0.189271432669  0.089736802707
 CTO2    HL  1  0.231633666716  0.089736802707
 CTO2  HEL1  1  0.280633096214  0.073666921749
 CTO2  HEL2  1  0.281523994932  0.067464972838
 CTO2    CL  1  0.347450500075  0.110698234855
 CTO2   CCL  1  0.347450500075  0.110698234855
 CTO2  CTL1  1  0.338541512893  0.041840000000
 CTO2  CTL2  1  0.338541512893  0.041840000000
 CTO2  CTL3  1  0.338541512893  0.041840000000
 CTO2  CTL5  1  0.338541512893  0.041840000000
 CTO2  CEL1  1  0.355468588538  0.109105371453
 CTO2  CEL2  1  0.354577689820  0.105847757841
 CTO2  CRL1  1  0.338541512893  0.041840000000
 CTO2  CRL2  1  0.338541512893  0.041840000000
 CTO2   OBL  1  0.293996576986  0.144938011577
 CTO2   OCL  1  0.320723538531  0.144938011577
 CTO2   O2L  1  0.320723538531  0.144938011577
 CTO2   OHL  1  0.326959829558  0.163176000000
 CTO2   OSL  1  0.316269044940  0.132309697301
 CTO2  OSLP  1  0.316269044940  0.132309697301
 CTO2  NH3L  1  0.334087019303  0.187114168357
 CTO2   NTL  1  0.334087019303  0.187114168357
 CTO2    SL  1  0.356359487256  0.286840588481
 CTO2    PL  1  0.360813980847  0.320014464673
 CTO2 HCA1A  1  0.288651184677  0.088756043175
 CTO2 HCA2A  1  0.288651184677  0.078275472531
 CTO2 HCA3A  1  0.288651184677  0.064818249282
 CTO2 CC30A  1  0.338541512893  0.041840000000
 CTO2 CC31A  1  0.338541512893  0.041840000000
 CTO2 CC32A  1  0.338541512893  0.041840000000
 CTO2 CC33A  1  0.338541512893  0.041840000000
 CTO2 CC326A  1  0.338541512893  0.041840000000
 CTO2 HCA25A  1  0.285087589805  0.078275472531
 CTO2 CC325A  1  0.338541512893  0.041840000000
 CTO2 CC325B  1  0.338541512893  0.041840000000
 CTO2 OC305A  1  0.316269044940  0.132309697301
 CTO2 OC30A  1  0.316269044940  0.132309697301
 CTO2  HSIO  1  0.189271432669  0.089736802707
 CTO2  HSIA  1  0.286869387241  0.062058748940
 CTO2   HAL  1  0.286869387241  0.062058748940
 CTO2    AL  1  0.365268474438  0.337324864189
 CTO2    SI  1  0.365268474438  0.324091246411
 CTO2  SIH3  1  0.365268474438  0.324091246411
 CTO2  OSIH  1  0.326959829558  0.163176000000
 CTO2  OSIE  1  0.326959829558  0.163176000000
 CTO2  OSIA  1  0.326959829558  0.163176000000
 CTO2   OAL  1  0.326959829558  0.163176000000
 CTO2    HT  1  0.189271432669  0.089736802707
 CTO2    OT  1  0.326799467788  0.163176000000
 CTO2   DUM  1  0.169270756447  0.000000000000
 CTO2    CM  1  0.356359487256  0.138767581228
 CTO2   CPA  1  0.329632525712  0.125520000000
 CTO2   CPB  1  0.329632525712  0.125520000000
 CTO2   CPM  1  0.329632525712  0.125520000000
 CTO2   CST  1  0.308518226092  0.100764063435
 CTO2  CT1X  1  0.338541512893  0.041840000000
 CTO2  CT2X  1  0.338541512893  0.041840000000
 CTO2  CT3X  1  0.338541512893  0.041840000000
 CTO2    HB  1  0.286869387241  0.062058748940
 CTO2   NPH  1  0.334087019303  0.187114168357
 CTO2    OM  1  0.320723538531  0.144938011577
 CTO2   OST  1  0.320010819556  0.169954883425
 CTO2   POT  1  0.326403017859  0.123410269913
 CTO2   CAL  1  0.291056611216  0.144938011577
 CTO2    MG  1  0.274842254546  0.051243325419
 CTO2   CES  1  0.356359487256  0.182376331798
 CTO2    ZN  1  0.266378716724  0.209200000000
 CTO2    FE  1  0.227179173126  0.000000000000
 CTO2    HE  1  0.301123766731  0.061020452073
 CTO2    NE  1  0.305578260322  0.122698965603
 CTO2  CLAL  1  0.339272049842  0.072469005789
 CTO2    AG  1  0.300901042052  0.893457908130
 CTO2    AU  1  0.300722862308  0.962320000000
 CTO2    CU  1  0.285800308779  0.908997471504
 CTO2    NI  1  0.282949432881  0.994525446633
 CTO2    PB  1  0.328073452955  0.716185437439
 CTO2    PD  1  0.294842930769  1.037598257516
 CTO2    PT  1  0.296001099102  1.168527606863
 CTO2   CAP  1  0.346773417049  0.110698234855
 CTO2    FA  1  0.320723538531  0.144938011577
 CTO2    CN  1  0.325178032121  0.187114168357
 CTO2    NC  1  0.334087019303  0.324091246411
 CTO2   OCA  1  0.293996576986  0.144938011577
 CTO2   COA  1  0.347450500075  0.138767581228
 CTO2   CF1  1  0.338541512893  0.102486650838
 CTO2   CF2  1  0.351904993665  0.085746484010
 CTO2   CF3  1  0.374177461619  0.059170695450
 CTO2   HF1  1  0.286869387241  0.070011711020
 CTO2   HF2  1  0.285087589805  0.072469005789
 CTO2    F1  1  0.314487247504  0.153729976257
 CTO2    F2  1  0.314487247504  0.135577095411
 CTO2    F3  1  0.311814551349  0.130309939452
 CTO2    OX  1  0.320723538531  0.144938011577
 CTO2    HX  1  0.189271432669  0.089736802707
 CTO2  HPER  1  0.189271432669  0.089736802707
 CTO2  OPER  1  0.318427692534  0.188901923946
 CTO2   LIT  1  0.284864865125  0.020196198771
 CTO2   RUB  1  0.338541512893  0.162045623205
 CTO2   BAR  1  0.337650614175  0.162045623205
 CTO2   CAD  1  0.290165712498  0.144938011577
 CTO2  ON2B  1  0.326959829558  0.163176000000
 CTO2    SP  1  0.365268474438  0.280671252536
 CTO2   HNP  1  0.290272620344  0.072469005789
 CTO2  HNE1  1  0.280633096214  0.073666921749
 CTO2  HNE2  1  0.281523994932  0.067464972838
 CTO2  CN3D  1  0.338541512893  0.125520000000
 CTO2  CNE1  1  0.355468588538  0.109105371453
 CTO2  CNE2  1  0.354577689820  0.105847757841
 CTO2   CNA  1  0.346773417049  0.110698234855
 CTO2  CNA2  1  0.338541512893  0.110698234855
 CTO2   CNG  1  0.347450500075  0.138767581228
 CTO2  NN1C  1  0.334087019303  0.187114168357
 CTO2  NN2C  1  0.334087019303  0.187114168357
 CTO2  NN3I  1  0.334087019303  0.187114168357
 CTO2   NNG  1  0.334087019303  0.187114168357
 CTO2   FNA  1  0.320723538531  0.144938011577
 CTO2  ON2M  1  0.316269044940  0.132309697301
 CTO2   CN6  1  0.338541512893  0.041840000000
 CTO2  CN7E  1  0.338541512893  0.041840000000
 CTO2  CT2P  1  0.338541512893  0.041840000000
 CTO2  CTD1  1  0.338541512893  0.041840000000
 CTO2  CPD1  1  0.338541512893  0.041840000000
 CTO2  CC1A  1  0.355468588538  0.109105371453
 CTO2  CC1B  1  0.355468588538  0.109105371453
 CTO2   CC2  1  0.354577689820  0.105847757841
 CTO2   NS1  1  0.334087019303  0.187114168357
 CTO2   NS2  1  0.334087019303  0.187114168357
 CTO2   NHL  1  0.307360057758  0.187114168357
 CTO2  CTO1  1  0.338541512893  0.041840000000
 CTO2  CEL3  1  0.355468588538  0.109105371453
 CTO2  CTO2  1  0.338541512893  0.041840000000
 CTO2  HN3B  1  0.249451641079  0.089736802707
 CTO2  CN1A  1  0.347450500075  0.110698234855
 CTO2  CN3A  1  0.329632525712  0.177512086349
 CTO2  CN3B  1  0.329632525712  0.177512086349
 CTO2  CN3C  1  0.329632525712  0.177512086349
; This force field generated by charmm2gmx.py from
; multiple charmm parameter files
; and multiple charmm topology files
[ bondtypes ]
;      i        j  func           b0           kb
     NH2      CT1     1   0.14550000    200832.00
      CA      CAI     1   0.13750000    255224.00
     CAI      CAI     1   0.13750000    255224.00
     CPT       CA     1   0.13600000    251040.00
     CPT      CAI     1   0.13600000    251040.00
     CPT      CPT     1   0.13850000    301248.00
      CY       CA     1   0.13650000    292880.00
      CY      CAI     1   0.13650000    292880.00
      CY      CPT     1   0.14300000    292880.00
      CY      CT3     1   0.14920000    313800.00
      CY      CT2     1   0.14920000    313800.00
      HP      CAI     1   0.10800000    284512.00
      HP       CY     1   0.10800000    292880.00
      NY       CA     1   0.13700000    225936.00
      NY      CPT     1   0.13700000    225936.00
      NY        H     1   0.09760000    449780.00
      CA       CA     1   0.13750000    255224.00
     CE1      CE1     1   0.13400000    368192.00
     CE1      CE2     1   0.13420000    418400.00
     CE1      CT2     1   0.15020000    305432.00
     CE1      CT3     1   0.15040000    320494.40
     CE2      CE2     1   0.13300000    426768.00
     CP1        C     1   0.14900000    209200.00
     CP1       CC     1   0.14900000    209200.00
     CP1       CD     1   0.14900000    167360.00
     CP2      CP1     1   0.15270000    186188.00
     CP2      CP2     1   0.15370000    186188.00
     CP3      CP2     1   0.15370000    186188.00
    CPH1     CPH1     1   0.13600000    343088.00
     CT1        C     1   0.14900000    209200.00
     CT1       CC     1   0.15220000    167360.00
     CT1       CD     1   0.15220000    167360.00
     CT1      CT1     1   0.15000000    186188.00
     CT2        C     1   0.14900000    209200.00
     CT2       CA     1   0.14900000    192464.00
     CT2       CC     1   0.15220000    167360.00
     CT2       CD     1   0.15220000    167360.00
     CT2     CPH1     1   0.15000000    192154.38
     CT2      CT1     1   0.15380000    186188.00
     CT2      CT2     1   0.15300000    186188.00
     CT3        C     1   0.14900000    209200.00
     CT3       CA     1   0.14900000    192464.00
     CT3       CC     1   0.15220000    167360.00
     CT3       CD     1   0.15220000    167360.00
     CT3     CPH1     1   0.15000000    192154.38
     CT3       CS     1   0.15310000    158992.00
     CT3      CT1     1   0.15380000    186188.00
     CT3      CT2     1   0.15280000    186188.00
     CT3      CT3     1   0.15300000    186188.00
       H       CD     1   0.11100000    276144.00
     HA1       CC     1   0.11000000    265374.38
     HA2      CP2     1   0.11110000    258571.20
     HA2      CP3     1   0.11110000    258571.20
     HA2       CS     1   0.11110000    251040.00
     HA3       CS     1   0.11110000    251040.00
     HA1      CT1     1   0.11110000    258571.20
     HA2      CT2     1   0.11110000    258571.20
     HA3      CT3     1   0.11110000    269449.60
     HE1      CE1     1   0.11000000    301666.40
     HE2      CE2     1   0.11000000    305432.00
     HB1      CP1     1   0.10800000    276144.00
     HB1      CT1     1   0.10800000    276144.00
     HB2      CT2     1   0.10800000    276144.00
      HP       CA     1   0.10800000    284512.00
     HR1     CPH1     1   0.10830000    313800.00
     HR1     CPH2     1   0.10900000    284512.00
     HR2     CPH2     1   0.10700000    278654.40
     HR3     CPH1     1   0.10830000    305432.00
       N        C     1   0.13000000    217568.00
       N      CP1     1   0.14340000    267776.00
       N      CP3     1   0.14550000    267776.00
     NC2        C     1   0.13650000    376560.00
     NC2      CT2     1   0.14900000    326352.00
     NC2      CT3     1   0.14900000    326352.00
     NC2       HC     1   0.10000000    380744.00
     NH1        C     1   0.13450000    309616.00
     NH1      CT1     1   0.14300000    267776.00
     NH1      CT2     1   0.14300000    267776.00
     NH1      CT3     1   0.14300000    267776.00
     NH1        H     1   0.09970000    368192.00
     NH1       HC     1   0.09800000    338904.00
     NH2       CC     1   0.13600000    359824.00
     NH2      CT2     1   0.14550000    200832.00
     NH2      CT3     1   0.14550000    200832.00
     NH2        H     1   0.10000000    401664.00
     NH2       HC     1   0.10000000    384928.00
     NH3      CT1     1   0.14800000    167360.00
     NH3      CT2     1   0.14800000    167360.00
     NH3      CT3     1   0.14800000    167360.00
     NH3       HC     1   0.10400000    337230.40
      NP      CP1     1   0.14850000    267776.00
      NP      CP3     1   0.15020000    267776.00
      NP       HC     1   0.10060000    384928.00
     NR1     CPH1     1   0.13800000    334720.00
     NR1     CPH2     1   0.13600000    334720.00
     NR1        H     1   0.10000000    389948.80
     NR2     CPH1     1   0.13800000    334720.00
     NR2     CPH2     1   0.13200000    334720.00
     NR3     CPH1     1   0.13700000    317984.00
     NR3     CPH2     1   0.13200000    317984.00
     NR3        H     1   0.10000000    379070.40
       O        C     1   0.12300000    518816.00
       O       CC     1   0.12300000    543920.00
      OB       CC     1   0.12200000    627600.00
      OB       CD     1   0.12200000    627600.00
      OC       CA     1   0.12600000    439320.00
      OC       CC     1   0.12600000    439320.00
      OC      CT2     1   0.13300000    376560.00
      OC      CT3     1   0.13300000    376560.00
     OH1       CA     1   0.14110000    279742.24
     OH1       CD     1   0.14000000    192464.00
     OH1      CT1     1   0.14200000    358150.40
     OH1      CT2     1   0.14200000    358150.40
     OH1      CT3     1   0.14200000    358150.40
     OH1        H     1   0.09600000    456056.00
      OS       CD     1   0.13340000    125520.00
      OS      CT3     1   0.14300000    284512.00
       S      CT2     1   0.18180000    165686.40
       S      CT3     1   0.18160000    200832.00
       S       HS     1   0.13250000    230120.00
      SM      CT2     1   0.18160000    179075.20
      SM      CT3     1   0.18160000    179075.20
      SM       SM     1   0.20290000    144766.40
      SS       CS     1   0.18360000    171544.00
     HR1       CD     1   0.11100000    276144.00
       O       CD     1   0.12050000    602496.00
    CT2A      CT1     1   0.15380000    186188.00
     CT2     CT2A     1   0.15300000    186188.00
    CT2A      HA2     1   0.11110000    258571.20
    CT2A     CPH1     1   0.15000000    192154.38
    CT2A       CC     1   0.15220000    167360.00
     CT1       CS     1   0.15380000    158992.00
   CG1N1   CG2DC1     1   0.14284000    306109.81
   CG1N1   CG2DC2     1   0.14284000    306109.81
   CG1N1   CG2R51     1   0.14220000    313800.00
   CG1N1   CG2R61     1   0.14350000    288696.00
   CG1N1    CG301     1   0.14378000    176338.86
   CG1N1    CG321     1   0.14700000    334720.00
   CG1N1    CG331     1   0.14700000    334720.00
   CG1N1    NG1T1     1   0.11800000    881150.40
   CG1N1    NG301     1   0.13682000    354928.72
   CG1N1    NG311     1   0.13559000    419730.51
   CG1N1    SG311     1   0.17011000    275131.47
   CG1T1    CG1T1     1   0.12200000    803328.00
   CG1T1    CG1T2     1   0.12200000    820064.00
   CG1T1    CG2D1     1   0.14350000    288696.00
   CG1T1    CG301     1   0.14619000    258211.38
   CG1T1    CG311     1   0.14650000    343088.00
   CG1T1    CG321     1   0.14650000    343088.00
   CG1T1    CG331     1   0.14650000    343088.00
   CG1T2   HGPAM1     1   0.10700000    356476.80
  CG251O   CG251O     1   0.13400000    368192.00
  CG251O   CG25C1     1   0.13400000    368192.00
  CG251O   CG2D1O     1   0.13486000    437236.37
  CG251O    CG2D2     1   0.13476000    474448.86
  CG251O   CG2DC1     1   0.13402000    499862.48
  CG251O   CG2DC3     1   0.13400000    476976.00
  CG251O   CG2R53     1   0.14800000    213384.00
  CG251O   CG2R61     1   0.13536000    362501.76
  CG251O   CG2RC0     1   0.14800000    242672.00
  CG251O   CG3C52     1   0.15054000    223743.58
  CG251O   NG2R50     1   0.14113000    288495.17
  CG251O   NG2R51     1   0.13477000    299423.78
  CG251O   NG2R53     1   0.14100000    167360.00
  CG251O   NG3C51     1   0.14124000    285783.94
  CG251O   OG3C51     1   0.13791000    266922.46
  CG251O   SG2R50     1   0.18087000    165477.20
  CG251O    SG311     1   0.17700000    167360.00
  CG252O   CG252O     1   0.13400000    368192.00
  CG252O   CG25C2     1   0.13400000    368192.00
  CG252O    CG2D2     1   0.13476000    474448.86
  CG252O   CG2D2O     1   0.13486000    437236.37
  CG252O   CG2DC2     1   0.13402000    499862.48
  CG252O   CG2DC3     1   0.13400000    476976.00
  CG252O   CG2R53     1   0.14800000    213384.00
  CG252O   CG2R61     1   0.13536000    362501.76
  CG252O   CG2RC0     1   0.14800000    242672.00
  CG252O   CG3C52     1   0.15054000    223743.58
  CG252O   NG2R50     1   0.14113000    288495.17
  CG252O   NG2R51     1   0.13477000    299423.78
  CG252O   NG2R53     1   0.14100000    167360.00
  CG252O   NG3C51     1   0.14124000    285783.94
  CG252O   OG3C51     1   0.13791000    266922.46
  CG252O   SG2R50     1   0.18087000    165477.20
  CG252O    SG311     1   0.17700000    167360.00
  CG25C1   CG25C2     1   0.15708000    175661.06
  CG25C1   CG2D1O     1   0.13472000    434600.45
  CG25C1   CG2DC1     1   0.13402000    499862.48
  CG25C1   CG2DC3     1   0.13420000    418400.00
  CG25C1   CG2R52     1   0.14760000    222714.32
  CG25C1   CG2R53     1   0.14900000    206689.60
  CG25C1   CG2RC0     1   0.14800000    242672.00
  CG25C1   CG3C50     1   0.14882000    201660.43
  CG25C1   CG3C52     1   0.14954000    217576.37
  CG25C1   CG3RC1     1   0.15167000    227726.75
  CG25C1    NG2D1     1   0.12910000    499109.36
  CG25C1    OG2D3     1   0.12234000    642637.30
  CG25C2   CG2D2O     1   0.13472000    434600.45
  CG25C2   CG2DC2     1   0.13402000    499862.48
  CG25C2   CG2DC3     1   0.13420000    418400.00
  CG25C2   CG2R52     1   0.14760000    222714.32
  CG25C2   CG2R53     1   0.14900000    206689.60
  CG25C2   CG2RC0     1   0.14800000    242672.00
  CG25C2   CG3C50     1   0.14882000    201660.43
  CG25C2   CG3C52     1   0.14954000    217576.37
  CG25C2   CG3RC1     1   0.15167000    227726.75
  CG25C2    NG2D1     1   0.12910000    499109.36
  CG25C2    OG2D3     1   0.12234000    642637.30
   CG2D1    CG2D1     1   0.13400000    368192.00
   CG2D1   CG2D1O     1   0.13180000    368192.00
   CG2D1    CG2D2     1   0.13420000    418400.00
   CG2D1   CG2D2O     1   0.13180000    368192.00
   CG2D1    CG301     1   0.15020000    200832.00
   CG2D1    CG311     1   0.15020000    305432.00
   CG2D1    CG314     1   0.15020000    305432.00
   CG2D1    CG321     1   0.15020000    305432.00
   CG2D1    CG324     1   0.14950000    309616.00
   CG2D1    CG331     1   0.15040000    320494.40
   CG2D1   CG3C31     1   0.14838000    261248.96
   CG2D1   CG3C50     1   0.14833000    238077.97
   CG2D1   CG3C51     1   0.14773000    258504.26
   CG2D1   CG3C52     1   0.15089000    221057.46
   CG2D1   CG3RC1     1   0.14669000    261801.25
   CG2D1    NG2D1     1   0.12760000    418400.00
   CG2D1    NG2P1     1   0.12830000    393296.00
   CG2D1     FGA1     1   0.13685000    313866.94
   CG2D1     HGA4     1   0.11000000    301666.40
   CG2D1    HGR52     1   0.11000000    301666.40
  CG2D1O   CG2D1O     1   0.13348000    430709.33
  CG2D1O    CG2D2     1   0.13400000    502080.00
  CG2D1O   CG2D2O     1   0.14207000    255416.46
  CG2D1O   CG2DC1     1   0.13400000    368192.00
  CG2D1O   CG2DC2     1   0.13946000    269516.54
  CG2D1O    CG2O1     1   0.14925000    239341.54
  CG2D1O    CG2O3     1   0.14116000     80006.45
  CG2D1O    CG2O5     1   0.14618000    196815.36
  CG2D1O   CG2R51     1   0.14249000    176112.93
  CG2D1O   CG2R61     1   0.13458000    407906.53
  CG2D1O    CG311     1   0.14771000    230371.04
  CG2D1O    CG314     1   0.14539000    209476.14
  CG2D1O    CG321     1   0.15092000    287859.20
  CG2D1O    CG331     1   0.15092000    287859.20
  CG2D1O    NG2D1     1   0.13000000    418400.00
  CG2D1O    NG2O1     1   0.13297000    200706.48
  CG2D1O    NG2P1     1   0.13597000    283332.11
  CG2D1O   NG2R43     1   0.13789000    270512.34
  CG2D1O   NG2R61     1   0.14037000    275307.20
  CG2D1O    NG2S0     1   0.13616000    252671.76
  CG2D1O    NG2S1     1   0.13770000    305632.83
  CG2D1O    NG301     1   0.13550000    351456.00
  CG2D1O    NG311     1   0.13550000    351456.00
  CG2D1O    NG321     1   0.14000000    351456.00
  CG2D1O   NG3C51     1   0.13714000    343715.60
  CG2D1O    NG3P1     1   0.14331000    207568.24
  CG2D1O    NG3P2     1   0.14336000    218254.18
  CG2D1O    OG301     1   0.13600000    322168.00
  CG2D1O    OG311     1   0.13600000    322168.00
  CG2D1O    OG312     1   0.12590000    546530.82
  CG2D1O   OG3R60     1   0.13470000    418400.00
  CG2D1O    SG311     1   0.17704000    159393.66
  CG2D1O     HGA4     1   0.11000000    301666.40
   CG2D2    CG2D2     1   0.13300000    426768.00
   CG2D2   CG2D2O     1   0.13400000    502080.00
   CG2D2     HGA5     1   0.11000000    305432.00
  CG2D2O   CG2D2O     1   0.13348000    430709.33
  CG2D2O   CG2DC1     1   0.13946000    269516.54
  CG2D2O   CG2DC2     1   0.13400000    368192.00
  CG2D2O    CG2O1     1   0.14925000    239341.54
  CG2D2O    CG2O3     1   0.14116000     80006.45
  CG2D2O    CG2O5     1   0.14618000    196815.36
  CG2D2O   CG2R51     1   0.14249000    176112.93
  CG2D2O   CG2R61     1   0.13458000    407906.53
  CG2D2O    CG311     1   0.14771000    230371.04
  CG2D2O    CG314     1   0.14539000    209476.14
  CG2D2O    CG321     1   0.15092000    287859.20
  CG2D2O    CG331     1   0.15092000    287859.20
  CG2D2O    NG2D1     1   0.13000000    418400.00
  CG2D2O    NG2O1     1   0.13297000    200706.48
  CG2D2O    NG2P1     1   0.13597000    283332.11
  CG2D2O   NG2R43     1   0.13789000    270512.34
  CG2D2O   NG2R61     1   0.14037000    275307.20
  CG2D2O    NG2S0     1   0.13616000    252671.76
  CG2D2O    NG2S1     1   0.13770000    305632.83
  CG2D2O    NG301     1   0.13550000    351456.00
  CG2D2O    NG311     1   0.13550000    351456.00
  CG2D2O    NG321     1   0.14000000    351456.00
  CG2D2O   NG3C51     1   0.13714000    343715.60
  CG2D2O    NG3P1     1   0.14331000    207568.24
  CG2D2O    NG3P2     1   0.14336000    218254.18
  CG2D2O    OG301     1   0.13600000    322168.00
  CG2D2O    OG311     1   0.13600000    322168.00
  CG2D2O    OG312     1   0.12590000    546530.82
  CG2D2O   OG3R60     1   0.13470000    418400.00
  CG2D2O    SG311     1   0.17704000    159393.66
  CG2D2O     HGA4     1   0.11000000    301666.40
  CG2DC1   CG2DC1     1   0.13400000    368192.00
  CG2DC1   CG2DC2     1   0.14500000    251040.00
  CG2DC1   CG2DC3     1   0.13420000    418400.00
  CG2DC1    CG2N2     1   0.14081000    319958.85
  CG2DC1    CG2O1     1   0.14890000    368192.00
  CG2DC1    CG2O2     1   0.14800000    251040.00
  CG2DC1    CG2O3     1   0.14890000    368192.00
  CG2DC1    CG2O4     1   0.14798000    251040.00
  CG2DC1    CG2O5     1   0.14800000    251040.00
  CG2DC1   CG2R51     1   0.14254000    288896.83
  CG2DC1   CG2R52     1   0.14254000    288896.83
  CG2DC1   CG2R53     1   0.14197000    293884.16
  CG2DC1   CG2R61     1   0.14500000    305432.00
  CG2DC1   CG2R62     1   0.14500000    305432.00
  CG2DC1   CG2R64     1   0.14146000    247500.34
  CG2DC1   CG2RC0     1   0.14500000    305432.00
  CG2DC1    CG301     1   0.15020000    305432.00
  CG2DC1    CG311     1   0.15020000    305432.00
  CG2DC1    CG314     1   0.15020000    305432.00
  CG2DC1    CG321     1   0.15020000    305432.00
  CG2DC1    CG324     1   0.15020000    305432.00
  CG2DC1    CG331     1   0.15040000    320494.40
  CG2DC1   CG3RC1     1   0.14785000    245006.67
  CG2DC1    NG2D1     1   0.12760000    418400.00
  CG2DC1    NG2P1     1   0.12830000    393296.00
  CG2DC1     HGA4     1   0.11000000    301666.40
  CG2DC1    HGR52     1   0.11000000    301666.40
  CG2DC2   CG2DC2     1   0.13400000    368192.00
  CG2DC2   CG2DC3     1   0.13420000    418400.00
  CG2DC2    CG2N2     1   0.14081000    319958.85
  CG2DC2    CG2O1     1   0.14890000    368192.00
  CG2DC2    CG2O2     1   0.14800000    251040.00
  CG2DC2    CG2O3     1   0.14890000    368192.00
  CG2DC2    CG2O4     1   0.14798000    251040.00
  CG2DC2    CG2O5     1   0.14800000    251040.00
  CG2DC2   CG2R51     1   0.14254000    288896.83
  CG2DC2   CG2R52     1   0.14254000    288896.83
  CG2DC2   CG2R53     1   0.14197000    293884.16
  CG2DC2   CG2R61     1   0.14500000    305432.00
  CG2DC2   CG2R62     1   0.14500000    305432.00
  CG2DC2   CG2R64     1   0.14146000    247500.34
  CG2DC2   CG2RC0     1   0.14500000    305432.00
  CG2DC2    CG301     1   0.15020000    305432.00
  CG2DC2    CG311     1   0.15020000    305432.00
  CG2DC2    CG314     1   0.15020000    305432.00
  CG2DC2    CG321     1   0.15020000    305432.00
  CG2DC2    CG324     1   0.15020000    305432.00
  CG2DC2    CG331     1   0.15040000    320494.40
  CG2DC2   CG3RC1     1   0.14785000    245006.67
  CG2DC2    NG2D1     1   0.12760000    418400.00
  CG2DC2    NG2P1     1   0.12830000    393296.00
  CG2DC2     HGA4     1   0.11000000    301666.40
  CG2DC2    HGR52     1   0.11000000    301666.40
  CG2DC3     HGA5     1   0.11000000    305432.00
   CG2N1    NG2D1     1   0.13100000    418400.00
   CG2N1    NG2P1     1   0.13650000    387438.40
   CG2N1   NG2R61     1   0.13152000    260612.99
   CG2N1    NG311     1   0.14400000    418400.00
   CG2N1    NG321     1   0.14400000    376560.00
   CG2N2    CG2N2     1   0.13651000    226848.11
   CG2N2   CG2R51     1   0.14200000    271960.00
   CG2N2   CG2R53     1   0.13887000    263299.12
   CG2N2   CG2R61     1   0.14400000    251040.00
   CG2N2   CG2R62     1   0.14400000    251040.00
   CG2N2    CG301     1   0.14131000    189861.55
   CG2N2    CG311     1   0.14550000    173761.52
   CG2N2    CG321     1   0.15000000    234304.00
   CG2N2    CG331     1   0.15000000    234304.00
   CG2N2    NG2D1     1   0.12900000    519652.80
   CG2N2    NG2P1     1   0.13200000    397480.00
   CG2N2   NG2R52     1   0.12950000    429236.56
   CG2N2    NG301     1   0.13296000    311021.82
   CG2N2    NG311     1   0.14400000    418400.00
   CG2N2    NG321     1   0.14200000    305432.00
   CG2N2    NG3N1     1   0.13938000    260269.90
   CG2N2    OG301     1   0.13126000    341757.49
   CG2N2    SG311     1   0.17900000    156481.60
   CG2N2     HGA4     1   0.10796000    316887.79
   CG2N2    HGR52     1   0.10845000    315875.26
   CG2O1    CG2O1     1   0.14849000    184957.90
   CG2O1   CG2R51     1   0.14750000    234304.00
   CG2O1   CG2R52     1   0.14750000    234304.00
   CG2O1   CG2R61     1   0.14750000    251040.00
   CG2O1   CG2R62     1   0.14800000    252713.60
   CG2O1   CG2R64     1   0.14800000    252713.60
   CG2O1    CG301     1   0.14900000    209200.00
   CG2O1    CG311     1   0.14900000    209200.00
   CG2O1    CG312     1   0.14888000    209384.10
   CG2O1    CG314     1   0.14900000    209200.00
   CG2O1    CG321     1   0.14900000    209200.00
   CG2O1    CG322     1   0.14980000    217534.53
   CG2O1    CG324     1   0.14900000    209200.00
   CG2O1    CG331     1   0.14900000    209200.00
   CG2O1   CG3C31     1   0.14994000    243575.74
   CG2O1   CG3C41     1   0.14740000    216881.82
   CG2O1   CG3C50     1   0.14900000    209200.00
   CG2O1   CG3C51     1   0.14900000    209200.00
   CG2O1   CG3C53     1   0.14900000    209200.00
   CG2O1   CG3RC1     1   0.15110000    212388.21
   CG2O1    NG2D1     1   0.14304000    284202.38
   CG2O1   NG2R51     1   0.14000000    251040.00
   CG2O1   NG2R52     1   0.14061000    196815.36
   CG2O1   NG2R53     1   0.13685000    250136.26
   CG2O1   NG2R61     1   0.14217000    194279.86
   CG2O1    NG2S0     1   0.13500000    359824.00
   CG2O1    NG2S1     1   0.13450000    309616.00
   CG2O1    NG2S2     1   0.13600000    359824.00
   CG2O1    OG2D1     1   0.12300000    518816.00
   CG2O1    SG2D1     1   0.16300000    251040.00
   CG2O1    HGR52     1   0.11000000    265374.38
   CG2O2   CG2R51     1   0.14512000    251625.76
   CG2O2   CG2R52     1   0.14164000    247768.11
   CG2O2   CG2R53     1   0.14482000    207158.21
   CG2O2   CG2R61     1   0.14800000    212547.20
   CG2O2   CG2R62     1   0.14800000    212547.20
   CG2O2   CG2R64     1   0.14672000    200739.95
   CG2O2    CG301     1   0.15220000    167360.00
   CG2O2    CG311     1   0.15220000    167360.00
   CG2O2    CG321     1   0.15220000    167360.00
   CG2O2    CG331     1   0.15220000    167360.00
   CG2O2   CG3C31     1   0.14468000    243492.06
   CG2O2   CG3C41     1   0.14708000    233065.54
   CG2O2   CG3C50     1   0.14430000    211877.76
   CG2O2   CG3C51     1   0.14893000    223760.32
   CG2O2   CG3RC1     1   0.14509000    228848.06
   CG2O2    OG2D1     1   0.12200000    627600.00
   CG2O2    OG302     1   0.13340000    125520.00
   CG2O2    OG303     1   0.13162000    419471.10
   CG2O2    OG311     1   0.14000000    192464.00
   CG2O2   OG3R60     1   0.13503000    189259.06
   CG2O2    SG2D1     1   0.16293000    330159.44
   CG2O2    SG311     1   0.17747000    142967.28
   CG2O2    HGR52     1   0.10960000    291206.40
   CG2O3    CG2O5     1   0.15200000    209200.00
   CG2O3   CG2R51     1   0.14439000    126047.18
   CG2O3   CG2R52     1   0.14488000    101244.43
   CG2O3   CG2R53     1   0.13804000    115193.89
   CG2O3   CG2R61     1   0.15000000    167360.00
   CG2O3   CG2R62     1   0.15000000    167360.00
   CG2O3   CG2R64     1   0.14005000    103319.70
   CG2O3    CG301     1   0.15220000    167360.00
   CG2O3    CG311     1   0.15220000    167360.00
   CG2O3    CG314     1   0.15220000    167360.00
   CG2O3    CG321     1   0.15220000    167360.00
   CG2O3    CG322     1   0.14556000    134682.96
   CG2O3    CG324     1   0.15220000    167360.00
   CG2O3    CG331     1   0.15220000    167360.00
   CG2O3   CG3C31     1   0.15034000    125946.77
   CG2O3   CG3C41     1   0.15250000    128649.63
   CG2O3   CG3C50     1   0.14900000    209200.00
   CG2O3   CG3C51     1   0.14900000    209200.00
   CG2O3   CG3C53     1   0.14900000    209200.00
   CG2O3   CG3RC1     1   0.14434000    121905.02
   CG2O3    NG2S0     1   0.14491000    169627.73
   CG2O3    NG2S1     1   0.13450000    309616.00
   CG2O3    OG2D2     1   0.12600000    439320.00
   CG2O3    HGR52     1   0.11422000    199158.40
   CG2O4    CG2O4     1   0.14288000    288587.22
   CG2O4    CG2O5     1   0.14288000    288587.22
   CG2O4   CG2R51     1   0.14614000    253684.29
   CG2O4   CG2R52     1   0.14487000    278821.76
   CG2O4   CG2R53     1   0.14335000    292721.01
   CG2O4   CG2R61     1   0.14798000    251040.00
   CG2O4   CG2R62     1   0.14640000    326352.00
   CG2O4   CG2RC0     1   0.14798000    251040.00
   CG2O4    CG311     1   0.15000000    209200.00
   CG2O4    CG321     1   0.15000000    209200.00
   CG2O4    CG331     1   0.15000000    209200.00
   CG2O4   CG3C41     1   0.15600000    158155.20
   CG2O4   CG3RC1     1   0.15409000    148339.54
   CG2O4    OG2D1     1   0.12150000    585760.00
   CG2O4    OG2D3     1   0.12100000    585760.00
   CG2O4   OG3C51     1   0.13340000    242672.00
   CG2O4    SG3O3     1   0.16271000    281022.54
   CG2O4    HGR52     1   0.11100000    276144.00
   CG2O5    CG2O5     1   0.15026000    193175.28
   CG2O5   CG2R51     1   0.14215000    281892.82
   CG2O5   CG2R52     1   0.14215000    281892.82
   CG2O5   CG2R53     1   0.14472000    242981.62
   CG2O5   CG2R61     1   0.14600000    212547.20
   CG2O5   CG2R62     1   0.14600000    212547.20
   CG2O5    CG301     1   0.15000000    276144.00
   CG2O5    CG311     1   0.15000000    276144.00
   CG2O5    CG312     1   0.15010000    200723.22
   CG2O5    CG314     1   0.15000000    276144.00
   CG2O5    CG321     1   0.15000000    276144.00
   CG2O5    CG322     1   0.14985000    215526.21
   CG2O5    CG324     1   0.15000000    276144.00
   CG2O5    CG331     1   0.15000000    276144.00
   CG2O5   CG3C31     1   0.15029000    211919.60
   CG2O5   CG3C50     1   0.15255000    184531.14
   CG2O5   CG3C51     1   0.15213000    193451.42
   CG2O5   CG3C52     1   0.15333000    204982.53
   CG2O5   CG3RC1     1   0.14917000    232237.10
   CG2O5    OG2D3     1   0.12300000    585760.00
   CG2O5    SG2D1     1   0.16280000    329648.99
   CG2O5    SG3O3     1   0.17534000    177786.53
   CG2O6    NG2D1     1   0.13650000    309691.31
   CG2O6   NG2R51     1   0.14000000    251040.00
   CG2O6   NG2R52     1   0.14497000    173477.01
   CG2O6    NG2S0     1   0.13600000    372376.00
   CG2O6    NG2S1     1   0.13700000    426768.00
   CG2O6    NG2S2     1   0.13600000    359824.00
   CG2O6    OG2D1     1   0.12300000    543920.00
   CG2O6    OG2D2     1   0.12940000    263173.60
   CG2O6    OG302     1   0.13500000    292880.00
   CG2O6    OG311     1   0.14800000    154808.00
   CG2O6   OG3R60     1   0.13356000    300754.29
   CG2O6    SG2D1     1   0.16300000    251040.00
   CG2O6    SG311     1   0.17500000    158992.00
   CG2O7    NG2D1     1   0.11900000    769856.00
   CG2O7    OG2D5     1   0.11700000    825084.80
  CG2R51   CG2R51     1   0.13600000    343088.00
  CG2R51   CG2R52     1   0.14000000    301248.00
  CG2R51   CG2R53     1   0.15080000    220915.20
  CG2R51   CG2R57     1   0.13600000    343088.00
  CG2R51   CG2R61     1   0.14351000    257818.08
  CG2R51   CG2R62     1   0.14340000    284495.26
  CG2R51   CG2R64     1   0.14102000    281675.25
  CG2R51   CG2RC0     1   0.14300000    292880.00
  CG2R51   CG2RC7     1   0.14050000    284512.00
  CG2R51    CG301     1   0.15000000    192154.38
  CG2R51    CG302     1   0.14638000    230145.10
  CG2R51    CG311     1   0.15000000    192154.38
  CG2R51    CG312     1   0.14767000    241759.89
  CG2R51    CG314     1   0.15000000    192154.38
  CG2R51    CG321     1   0.15000000    192154.38
  CG2R51    CG324     1   0.15000000    192154.38
  CG2R51    CG331     1   0.15000000    192154.38
  CG2R51   CG3C31     1   0.14712000    286386.43
  CG2R51   CG3C41     1   0.14361000    247994.05
  CG2R51   CG3C50     1   0.15100000    292880.00
  CG2R51   CG3C51     1   0.15100000    288696.00
  CG2R51   CG3C52     1   0.15100000    292880.00
  CG2R51   CG3C53     1   0.14960000    297064.00
  CG2R51   CG3C54     1   0.14960000    271960.00
  CG2R51   CG3RC1     1   0.14941000    204145.73
  CG2R51    NG2D1     1   0.12634000    496548.75
  CG2R51    NG2O1     1   0.13898000    236362.53
  CG2R51   NG2R50     1   0.13800000    334720.00
  CG2R51   NG2R51     1   0.13800000    334720.00
  CG2R51   NG2R52     1   0.13700000    317984.00
  CG2R51   NG2R53     1   0.14066000    292461.60
  CG2R51   NG2R57     1   0.13800000    334720.00
  CG2R51   NG2R61     1   0.13940000    272880.48
  CG2R51   NG2RC0     1   0.13710000    334720.00
  CG2R51    NG2S1     1   0.13545000    331916.72
  CG2R51    NG301     1   0.13385000    359556.22
  CG2R51    NG311     1   0.13733000    275968.27
  CG2R51    NG321     1   0.14001000    338669.70
  CG2R51   NG3C51     1   0.14120000    301248.00
  CG2R51    NG3P1     1   0.14882000    176363.97
  CG2R51    NG3P2     1   0.14800000    276144.00
  CG2R51   OG2R50     1   0.13710000    376560.00
  CG2R51    OG311     1   0.13752000    357154.61
  CG2R51    OG312     1   0.12744000    440633.78
  CG2R51   OG3C51     1   0.13700000    301248.00
  CG2R51   OG3R60     1   0.13553000    302653.82
  CG2R51   SG2R50     1   0.17300000    251040.00
  CG2R51    SG311     1   0.17155000    179970.58
  CG2R51    SG3O1     1   0.17992000    139176.58
  CG2R51    SG3O2     1   0.17300000    175728.00
  CG2R51     FGR1     1   0.13389000    341757.49
  CG2R51    HGR51     1   0.10800000    292880.00
  CG2R51    HGR52     1   0.10830000    313800.00
  CG2R52   CG2R52     1   0.13800000    334720.00
  CG2R52   CG2R57     1   0.13600000    343088.00
  CG2R52   CG2R61     1   0.14373000    272554.13
  CG2R52   CG2R62     1   0.14254000    271742.43
  CG2R52   CG2RC0     1   0.14200000    301248.00
  CG2R52    CG301     1   0.14606000    225601.28
  CG2R52    CG302     1   0.14484000    219224.86
  CG2R52    CG311     1   0.15000000    246856.00
  CG2R52    CG312     1   0.14649000    221090.93
  CG2R52    CG314     1   0.15000000    246856.00
  CG2R52    CG321     1   0.15000000    246856.00
  CG2R52    CG331     1   0.14986000    259282.48
  CG2R52   CG3C31     1   0.14529000    270520.70
  CG2R52   CG3C41     1   0.15075000    219944.51
  CG2R52   CG3C50     1   0.15100000    292880.00
  CG2R52   CG3C51     1   0.15050000    292880.00
  CG2R52   CG3C52     1   0.15050000    292880.00
  CG2R52   CG3C54     1   0.15050000    292880.00
  CG2R52   CG3RC1     1   0.15002000    213015.81
  CG2R52   NG2R50     1   0.13150000    334720.00
  CG2R52   NG2R52     1   0.13000000    410032.00
  CG2R52    OG301     1   0.13292000    337556.75
  CG2R52    SG3O3     1   0.16255000    345288.78
  CG2R52    HGR52     1   0.10830000    313800.00
  CG2R53   CG2R53     1   0.14950000    187008.06
  CG2R53   CG2R61     1   0.14400000    251040.00
  CG2R53   CG2R62     1   0.14400000    251040.00
  CG2R53   CG2R64     1   0.13646000    268437.07
  CG2R53   CG2RC0     1   0.14606000    245801.63
  CG2R53   CG2RC7     1   0.14038000    280185.74
  CG2R53    CG301     1   0.15000000    355640.00
  CG2R53    CG302     1   0.14713000    206195.89
  CG2R53    CG311     1   0.15000000    355640.00
  CG2R53    CG314     1   0.15000000    355640.00
  CG2R53    CG321     1   0.15000000    355640.00
  CG2R53    CG324     1   0.15000000    355640.00
  CG2R53    CG331     1   0.15000000    355640.00
  CG2R53   CG3C31     1   0.14510000    270821.95
  CG2R53   CG3C41     1   0.15600000    167360.00
  CG2R53   CG3C50     1   0.15100000    154808.00
  CG2R53   CG3C51     1   0.15300000    251040.00
  CG2R53   CG3C52     1   0.15300000    251040.00
  CG2R53   CG3C53     1   0.15300000    251040.00
  CG2R53   CG3RC1     1   0.15129000    199560.06
  CG2R53    NG2D1     1   0.13857000    290218.98
  CG2R53    NG2O1     1   0.13963000    221358.70
  CG2R53    NG2P1     1   0.12994000    464700.14
  CG2R53   NG2R43     1   0.13800000    309616.00
  CG2R53   NG2R50     1   0.13200000    334720.00
  CG2R53   NG2R51     1   0.13740000    267776.00
  CG2R53   NG2R52     1   0.13200000    317984.00
  CG2R53   NG2R53     1   0.13800000    384928.00
  CG2R53   NG2R57     1   0.13756000    352878.56
  CG2R53   NG2R61     1   0.14609000    276244.42
  CG2R53   NG2RC0     1   0.13657000    298243.89
  CG2R53    NG2S1     1   0.14126000    344736.50
  CG2R53    NG301     1   0.13594000    305666.30
  CG2R53    NG311     1   0.14071000    316678.59
  CG2R53    NG321     1   0.14182000    338786.85
  CG2R53   NG3C51     1   0.14000000    317984.00
  CG2R53    NG3N1     1   0.13378000    306402.69
  CG2R53    NG3P0     1   0.14004000    132164.19
  CG2R53    OG2D1     1   0.12350000    476976.00
  CG2R53   OG2R50     1   0.13710000    376560.00
  CG2R53    OG301     1   0.13257000    357573.01
  CG2R53    OG312     1   0.12468000    572814.70
  CG2R53   OG3C51     1   0.13570000    247274.40
  CG2R53    SG2D1     1   0.16300000    334720.00
  CG2R53   SG2R50     1   0.17300000    251040.00
  CG2R53    SG311     1   0.17700000    142256.00
  CG2R53    SG3O2     1   0.17167000    185259.15
  CG2R53     FGR1     1   0.13425000    409889.74
  CG2R53    HGR52     1   0.10900000    284512.00
  CG2R53    HGR53     1   0.10700000    278654.40
  CG2R57   CG2R57     1   0.14500000    345598.40
  CG2R57   CG2RC0     1   0.14276000    277725.55
  CG2R57   CG3C50     1   0.14191000    197836.26
  CG2R57   CG3C51     1   0.14537000    255859.97
  CG2R57   CG3C52     1   0.15023000    207911.33
  CG2R57   CG3C53     1   0.14503000    264437.17
  CG2R57   CG3RC1     1   0.14869000    262353.54
  CG2R57   NG2R50     1   0.13139000    352184.02
  CG2R57   NG2R51     1   0.13554000    343598.45
  CG2R57   NG2R52     1   0.13891000    259541.89
  CG2R57   NG2R57     1   0.13950000    326352.00
  CG2R57   NG2RC0     1   0.13621000    301783.55
  CG2R57   NG3C51     1   0.13981000    242069.50
  CG2R57   OG2R50     1   0.13663000    280486.99
  CG2R57   SG2R50     1   0.17350000    198020.35
  CG2R57    SG311     1   0.18395000    148155.44
  CG2R61   CG2R61     1   0.13750000    255224.00
  CG2R61   CG2R62     1   0.13750000    329699.20
  CG2R61   CG2R63     1   0.14270000    221752.00
  CG2R61   CG2R64     1   0.13550000    209200.00
  CG2R61   CG2R66     1   0.13700000    255224.00
  CG2R61   CG2R67     1   0.13750000    255224.00
  CG2R61   CG2R71     1   0.14114000    246178.19
  CG2R61   CG2RC0     1   0.13600000    251040.00
  CG2R61    CG301     1   0.14900000    192464.00
  CG2R61    CG302     1   0.14500000    165686.40
  CG2R61    CG311     1   0.14900000    192464.00
  CG2R61    CG312     1   0.14500000    165686.40
  CG2R61    CG314     1   0.14900000    192464.00
  CG2R61    CG321     1   0.14900000    192464.00
  CG2R61    CG322     1   0.14500000    165686.40
  CG2R61    CG324     1   0.14900000    192464.00
  CG2R61    CG331     1   0.14900000    192464.00
  CG2R61   CG3C31     1   0.14788000    265658.90
  CG2R61   CG3C41     1   0.14697000    236538.26
  CG2R61   CG3C50     1   0.14603000    201785.95
  CG2R61   CG3C51     1   0.14831000    227266.51
  CG2R61   CG3C53     1   0.14745000    238513.10
  CG2R61   CG3RC1     1   0.14669000    241994.19
  CG2R61    NG2D1     1   0.13660000    523000.00
  CG2R61    NG2O1     1   0.14020000    192464.00
  CG2R61    NG2P1     1   0.13820000    251040.00
  CG2R61   NG2R43     1   0.13866000    273909.74
  CG2R61   NG2R51     1   0.14200000    334720.00
  CG2R61   NG2R52     1   0.14641000    204103.89
  CG2R61   NG2R53     1   0.14040000    247274.40
  CG2R61   NG2R60     1   0.13050000    376560.00
  CG2R61   NG2R61     1   0.13790000    317984.00
  CG2R61   NG2R62     1   0.13050000    376560.00
  CG2R61   NG2R67     1   0.13677000    322812.34
  CG2R61   NG2RC0     1   0.13790000    309616.00
  CG2R61    NG2S0     1   0.14140000    255224.00
  CG2R61    NG2S1     1   0.14140000    255224.00
  CG2R61    NG2S3     1   0.13900000    334720.00
  CG2R61    NG301     1   0.14100000    271960.00
  CG2R61    NG311     1   0.14000000    276144.00
  CG2R61   NG3C51     1   0.13430000    372041.28
  CG2R61    NG3N1     1   0.14100000    569024.00
  CG2R61    NG3P0     1   0.13668000    205208.46
  CG2R61    NG3P1     1   0.14498000    237199.33
  CG2R61    OG301     1   0.13820000    192464.00
  CG2R61    OG302     1   0.13820000    192464.00
  CG2R61    OG303     1   0.13800000    284512.00
  CG2R61    OG311     1   0.14110000    279742.24
  CG2R61    OG312     1   0.12600000    439320.00
  CG2R61   OG3R60     1   0.13500000    234304.00
  CG2R61    SG302     1   0.17061000    207451.09
  CG2R61    SG311     1   0.17500000    234304.00
  CG2R61    SG3O1     1   0.17800000    192464.00
  CG2R61    SG3O2     1   0.17300000    158992.00
  CG2R61    SG3O3     1   0.17870000    142699.50
  CG2R61    CLGR1     1   0.17400000    292880.00
  CG2R61    BRGR1     1   0.19030000    192464.00
  CG2R61     IGR1     1   0.21150000    158992.00
  CG2R61    BG201     1   0.16500000    347272.00
  CG2R61    HGR61     1   0.10800000    284512.00
  CG2R61    HGR62     1   0.10800000    284512.00
  CG2R62   CG2R62     1   0.13500000    351456.00
  CG2R62   CG2R63     1   0.14030000    252713.60
  CG2R62   CG2R64     1   0.14060000    267776.00
  CG2R62   CG2R66     1   0.13750000    329699.20
  CG2R62   CG2R67     1   0.13800000    255224.00
  CG2R62   CG2RC0     1   0.13600000    251040.00
  CG2R62    CG301     1   0.14900000    192464.00
  CG2R62    CG302     1   0.14500000    165686.40
  CG2R62    CG311     1   0.14800000    221752.00
  CG2R62    CG312     1   0.14500000    165686.40
  CG2R62    CG321     1   0.14800000    221752.00
  CG2R62    CG324     1   0.14800000    251040.00
  CG2R62    CG331     1   0.14780000    192464.00
  CG2R62   CG3C31     1   0.14754000    262420.48
  CG2R62   CG3C41     1   0.14747000    245609.17
  CG2R62   CG3C50     1   0.14727000    220613.95
  CG2R62   CG3C51     1   0.14720000    228613.76
  CG2R62    NG2D1     1   0.13660000    523000.00
  CG2R62    NG2O1     1   0.14020000    192464.00
  CG2R62    NG2P1     1   0.13820000    251040.00
  CG2R62   NG2R51     1   0.14200000    334720.00
  CG2R62   NG2R52     1   0.12726000    238730.67
  CG2R62   NG2R60     1   0.13050000    376560.00
  CG2R62   NG2R61     1   0.13430000    252713.60
  CG2R62   NG2R62     1   0.13650000    284512.00
  CG2R62   NG2R67     1   0.13430000    252713.60
  CG2R62   NG2RC0     1   0.13790000    309616.00
  CG2R62    NG2S1     1   0.14140000    255224.00
  CG2R62    NG2S3     1   0.13900000    334720.00
  CG2R62    NG301     1   0.13620000    275943.17
  CG2R62    NG311     1   0.13620000    275943.17
  CG2R62   NG3C51     1   0.13346000    393245.79
  CG2R62    NG3N1     1   0.14100000    569024.00
  CG2R62    OG301     1   0.13420000    263592.00
  CG2R62    OG311     1   0.13490000    291206.40
  CG2R62    OG312     1   0.12600000    439320.00
  CG2R62   OG3R60     1   0.13700000    276144.00
  CG2R62    SG302     1   0.17237000    227584.50
  CG2R62    SG311     1   0.17500000    234304.00
  CG2R62    SG3O2     1   0.17300000    158992.00
  CG2R62    HGR62     1   0.10900000    292880.00
  CG2R62    HGR63     1   0.10900000    292880.00
  CG2R63   CG2R63     1   0.14231000    187234.00
  CG2R63   CG2R64     1   0.14030000    252713.60
  CG2R63   CG2R66     1   0.14270000    221752.00
  CG2R63   CG2RC0     1   0.13600000    252713.60
  CG2R63    NG2P1     1   0.14100000    343088.00
  CG2R63   NG2R52     1   0.14525000    245776.53
  CG2R63   NG2R61     1   0.13830000    284512.00
  CG2R63   NG2R62     1   0.13350000    292880.00
  CG2R63   NG2R67     1   0.13430000    252713.60
  CG2R63   NG2RC0     1   0.13910000    251040.00
  CG2R63    OG2D4     1   0.12340000    552288.00
  CG2R63   OG3R60     1   0.14000000    196648.00
  CG2R63    SG2D1     1   0.16550000    312126.40
  CG2R63    SG311     1   0.18109000    160079.84
  CG2R63    SEGD1     1   0.18500000    292880.00
  CG2R64   CG2R64     1   0.14060000    267776.00
  CG2R64   CG2R66     1   0.13550000    209200.00
  CG2R64   CG2R67     1   0.13800000    255224.00
  CG2R64   CG2RC0     1   0.13580000    301248.00
  CG2R64    CG301     1   0.14219000    233324.94
  CG2R64    CG302     1   0.14583000    199643.74
  CG2R64    CG311     1   0.14800000    221752.00
  CG2R64    CG314     1   0.14800000    221752.00
  CG2R64    CG321     1   0.14800000    221752.00
  CG2R64    CG324     1   0.14800000    251040.00
  CG2R64    CG331     1   0.15020000    210873.60
  CG2R64   CG3C31     1   0.14554000    259943.55
  CG2R64   CG3C41     1   0.15158000    235701.46
  CG2R64   CG3C50     1   0.13372000    202539.07
  CG2R64   CG3C51     1   0.14641000    235191.01
  CG2R64   CG3C53     1   0.14505000    217157.97
  CG2R64    NG2D1     1   0.13030000    468490.85
  CG2R64    NG2O1     1   0.14239000    178464.34
  CG2R64    NG2P1     1   0.13700000    368192.00
  CG2R64   NG2R51     1   0.13700000    267776.00
  CG2R64   NG2R52     1   0.13644000    205886.27
  CG2R64   NG2R53     1   0.14119000    257533.57
  CG2R64   NG2R60     1   0.13050000    376560.00
  CG2R64   NG2R61     1   0.13920000    334720.00
  CG2R64   NG2R62     1   0.13420000    334720.00
  CG2R64   NG2R67     1   0.13920000    334720.00
  CG2R64   NG2RC0     1   0.13462000    309205.97
  CG2R64    NG2S0     1   0.13860000    251040.00
  CG2R64    NG2S1     1   0.14140000    255224.00
  CG2R64    NG2S3     1   0.13660000    301248.00
  CG2R64    NG301     1   0.13550000    326352.00
  CG2R64    NG311     1   0.13700000    309616.00
  CG2R64   NG3C51     1   0.13707000    298084.90
  CG2R64    NG3N1     1   0.13671000    283717.04
  CG2R64    OG301     1   0.13420000    263592.00
  CG2R64   OG3R60     1   0.13700000    276144.00
  CG2R64    SG311     1   0.17410000    219241.60
  CG2R64    SG3O1     1   0.16534000    157151.04
  CG2R64    SG3O2     1   0.16930000    165736.61
  CG2R64     FGR1     1   0.13381000    365773.65
  CG2R64    HGR62     1   0.10900000    317984.00
  CG2R66   CG2R66     1   0.13700000    255224.00
  CG2R66   CG2R67     1   0.13800000    255224.00
  CG2R66   CG2RC0     1   0.13600000    251040.00
  CG2R66   NG2R60     1   0.13050000    376560.00
  CG2R66   NG2R61     1   0.13790000    317984.00
  CG2R66   NG2R62     1   0.13050000    376560.00
  CG2R66   NG2RC0     1   0.13790000    309616.00
  CG2R66     FGR1     1   0.13580000    334720.00
  CG2R67   CG2R67     1   0.14900000    251040.00
  CG2R67   CG2RC0     1   0.14200000    251040.00
  CG2R67   NG2R60     1   0.13100000    376560.00
  CG2R67   NG2R61     1   0.13339000    329950.24
  CG2R67   NG2R62     1   0.13150000    366284.10
  CG2R67   NG2R67     1   0.14110000    337230.40
  CG2R67   NG2RC0     1   0.13474000    346276.21
  CG2R67   OG3R60     1   0.13920000    237232.80
  CG2R71   CG2R71     1   0.13850000    301248.00
  CG2R71   CG2RC7     1   0.13800000    334720.00
  CG2R71    CG331     1   0.14997000    255449.94
  CG2R71    NG2D1     1   0.12983000    509912.45
  CG2R71    NG2P1     1   0.12997000    421964.77
  CG2R71    NG2S1     1   0.13639000    288729.47
  CG2R71    NG3N1     1   0.14649000    227458.98
  CG2R71    OG2D1     1   0.12344000    646051.44
  CG2R71    OG2D3     1   0.12409000    604169.60
  CG2R71    SG2D1     1   0.16604000    295658.18
  CG2R71    SG311     1   0.16763000    179409.92
  CG2R71    HGR71     1   0.10900000    297064.00
  CG2RC0   CG2RC0     1   0.13850000    301248.00
  CG2RC0   CG3C31     1   0.14578000    236563.36
  CG2RC0   CG3C41     1   0.14900000    192464.00
  CG2RC0   CG3C50     1   0.14900000    200832.00
  CG2RC0   CG3C51     1   0.15200000    255224.00
  CG2RC0   CG3C52     1   0.15200000    255224.00
  CG2RC0   CG3C53     1   0.15200000    255224.00
  CG2RC0   CG3C54     1   0.15200000    255224.00
  CG2RC0   CG3RC1     1   0.14919000    219459.17
  CG2RC0    NG2D1     1   0.13660000    259408.00
  CG2RC0   NG2R50     1   0.13650000    259408.00
  CG2RC0   NG2R51     1   0.13750000    251040.00
  CG2RC0   NG2R52     1   0.13810000    284512.00
  CG2RC0   NG2R53     1   0.13900000    301248.00
  CG2RC0   NG2R57     1   0.14042000    237525.68
  CG2RC0   NG2R60     1   0.13565000    335540.06
  CG2RC0   NG2R61     1   0.13790000    301248.00
  CG2RC0   NG2R62     1   0.13150000    292880.00
  CG2RC0   NG2R67     1   0.13665000    331807.94
  CG2RC0   NG2RC0     1   0.14170000    205016.00
  CG2RC0    NG2S0     1   0.13843000    275374.14
  CG2RC0    NG311     1   0.14000000    276144.00
  CG2RC0   NG3C51     1   0.14000000    276144.00
  CG2RC0   OG2R50     1   0.13700000    376560.00
  CG2RC0   OG3C51     1   0.13890000    276144.00
  CG2RC0   SG2R50     1   0.17600000    251040.00
  CG2RC0    SG311     1   0.17259000    181451.71
  CG2RC0    SG3O2     1   0.18545000    154013.04
  CG2RC0    BG201     1   0.15800000    276144.00
  CG2RC0     HGA4     1   0.10800000    284512.00
  CG2RC7   CG2RC7     1   0.15200000    192464.00
  CG2RC7   NG2R50     1   0.14059000    287993.09
  CG2RC7   OG2R50     1   0.13655000    296587.02
  CG2RC7   OG3C51     1   0.13534000    299432.14
   CG301    CG301     1   0.15000000    186188.00
   CG301    CG302     1   0.15200000    209200.00
   CG301    CG311     1   0.15000000    186188.00
   CG301    CG312     1   0.14910000    158632.18
   CG301    CG314     1   0.15000000    186188.00
   CG301    CG321     1   0.15380000    186188.00
   CG301    CG322     1   0.15200000    142256.00
   CG301    CG324     1   0.15380000    186188.00
   CG301    CG331     1   0.15380000    186188.00
   CG301   CG3C41     1   0.15039000    208798.34
   CG301   CG3C50     1   0.14227000    173159.02
   CG301   CG3C51     1   0.15280000    186188.00
   CG301   CG3C53     1   0.15280000    186188.00
   CG301   CG3RC1     1   0.15240000    186188.00
   CG301    NG2D1     1   0.14776000    213450.94
   CG301    NG2O1     1   0.14513000    178958.05
   CG301    NG2P1     1   0.14530000    251040.00
   CG301   NG2R51     1   0.14750000    243433.49
   CG301   NG2R53     1   0.14535000    213877.71
   CG301   NG2R61     1   0.14431000    165795.18
   CG301    NG2S0     1   0.14300000    267776.00
   CG301    NG2S1     1   0.14300000    267776.00
   CG301    NG301     1   0.14670000    188631.46
   CG301    NG311     1   0.14740000    220078.40
   CG301    NG321     1   0.14740000    220078.40
   CG301    NG3P0     1   0.15100000    179912.00
   CG301    NG3P1     1   0.14656000    145109.49
   CG301    NG3P2     1   0.14900000    167360.00
   CG301    NG3P3     1   0.14800000    167360.00
   CG301    OG301     1   0.14150000    301248.00
   CG301    OG302     1   0.14300000    284512.00
   CG301    OG303     1   0.14300000    284512.00
   CG301    OG311     1   0.14200000    358150.40
   CG301   OG3C61     1   0.14150000    301248.00
   CG301   OG3R60     1   0.14337000    208246.05
   CG301    SG311     1   0.18494000    165117.38
   CG301    SG3O2     1   0.17778000    132088.88
   CG301    SG3O3     1   0.18106000     95052.11
   CG301    CLGA3     1   0.17700000    158992.00
   CG301    BRGA3     1   0.19540000    100416.00
   CG302    CG311     1   0.15200000    209200.00
   CG302    CG314     1   0.15200000    209200.00
   CG302    CG321     1   0.15200000    209200.00
   CG302    CG331     1   0.15200000    209200.00
   CG302   CG3C50     1   0.14877000    205459.50
   CG302   CG3C51     1   0.14875000    239048.66
   CG302   CG3RC1     1   0.14756000    235040.38
   CG302     FGA3     1   0.13400000    221752.00
   CG311    CG311     1   0.15000000    186188.00
   CG311    CG312     1   0.15200000    142256.00
   CG311    CG314     1   0.15000000    186188.00
   CG311    CG321     1   0.15380000    186188.00
   CG311    CG322     1   0.15200000    142256.00
   CG311    CG324     1   0.15300000    186188.00
   CG311    CG331     1   0.15380000    186188.00
   CG311   CG3C31     1   0.15000000    230120.00
   CG311   CG3C41     1   0.15107000    206321.41
   CG311   CG3C50     1   0.15200000    171544.00
   CG311   CG3C51     1   0.15280000    186188.00
   CG311   CG3C53     1   0.15280000    186188.00
   CG311   CG3RC1     1   0.15240000    186188.00
   CG311    NG2D1     1   0.14016000    164908.18
   CG311    NG2O1     1   0.14900000    189116.80
   CG311   NG2R51     1   0.14177000    271198.51
   CG311   NG2R53     1   0.14300000    267776.00
   CG311   NG2R61     1   0.14380000    222488.38
   CG311    NG2S0     1   0.14300000    267776.00
   CG311    NG2S1     1   0.14300000    267776.00
   CG311    NG301     1   0.13923000    161000.32
   CG311    NG311     1   0.14740000    220078.40
   CG311    NG321     1   0.14740000    220078.40
   CG311   NG3C51     1   0.14284000    167552.46
   CG311    NG3N1     1   0.14195000    210630.93
   CG311    OG301     1   0.14150000    301248.00
   CG311    OG302     1   0.14300000    284512.00
   CG311    OG303     1   0.14300000    284512.00
   CG311    OG311     1   0.14200000    358150.40
   CG311    OG312     1   0.13130000    299574.40
   CG311   OG3C61     1   0.14150000    301248.00
   CG311   OG3R60     1   0.14000000    234304.00
   CG311    SG311     1   0.18180000    165686.40
   CG311    SG3O1     1   0.18070000    154808.00
   CG311    SG3O2     1   0.17900000    154808.00
   CG311    SG3O3     1   0.18198000    135394.24
   CG311    CLGA1     1   0.17768000    158992.00
   CG311    BRGA2     1   0.19560000    117152.00
   CG311     HGA1     1   0.11110000    258571.20
   CG311     HGA3     1   0.11110000    269449.60
   CG312    CG312     1   0.14563000    227869.01
   CG312    CG321     1   0.15200000    165686.40
   CG312    CG322     1   0.14896000    211844.29
   CG312    CG324     1   0.15200000    165686.40
   CG312    CG331     1   0.15200000    165686.40
   CG312   NG2R61     1   0.13971000    250713.65
   CG312   OG3R60     1   0.13237000    286637.47
   CG312      PG1     1   0.18800000    225936.00
   CG312      PG2     1   0.18800000    225936.00
   CG312    SG311     1   0.17917000    165903.97
   CG312     FGA2     1   0.13530000    292043.20
   CG312     HGA7     1   0.10828000    289532.80
   CG314    CG314     1   0.15000000    186188.00
   CG314    CG321     1   0.15380000    186188.00
   CG314    CG324     1   0.15380000    186188.00
   CG314    CG331     1   0.15380000    186188.00
   CG314   CG3C51     1   0.15280000    186188.00
   CG314   CG3RC1     1   0.15240000    186188.00
   CG314    NG2P1     1   0.14530000    251040.00
   CG314   NG2R52     1   0.14812000    177376.50
   CG314   NG2R61     1   0.14380000    222488.38
   CG314    NG311     1   0.14740000    220078.40
   CG314    NG3P0     1   0.15100000    179912.00
   CG314    NG3P1     1   0.14800000    167360.00
   CG314    NG3P2     1   0.14900000    167360.00
   CG314    NG3P3     1   0.14800000    167360.00
   CG314    OG311     1   0.14200000    358150.40
   CG314   OG3C61     1   0.14150000    301248.00
   CG314    SG311     1   0.18180000    165686.40
   CG314     HGA1     1   0.11110000    258571.20
   CG314     HGP5     1   0.11110000    258571.20
   CG321    CG321     1   0.15300000    186188.00
   CG321    CG322     1   0.15200000    142256.00
   CG321    CG324     1   0.15300000    186188.00
   CG321    CG331     1   0.15280000    186188.00
   CG321   CG3C31     1   0.15000000    230120.00
   CG321   CG3C41     1   0.15041000    214496.94
   CG321   CG3C50     1   0.15200000    171544.00
   CG321   CG3C51     1   0.15280000    186188.00
   CG321   CG3C53     1   0.15280000    186188.00
   CG321   CG3RC1     1   0.15240000    186188.00
   CG321    NG1T1     1   0.14876000    226940.16
   CG321    NG2D1     1   0.14400000    245182.40
   CG321   NG2R43     1   0.14530000    254211.47
   CG321   NG2R51     1   0.14580000    334720.00
   CG321   NG2R53     1   0.14300000    267776.00
   CG321   NG2R61     1   0.14380000    222488.38
   CG321    NG2S0     1   0.14510000    284512.00
   CG321    NG2S1     1   0.14300000    267776.00
   CG321    NG2S3     1   0.14400000    269449.60
   CG321    NG301     1   0.14500000    167360.00
   CG321    NG311     1   0.14740000    220078.40
   CG321    NG321     1   0.14740000    220078.40
   CG321   NG3C51     1   0.14284000    167552.46
   CG321    NG3N1     1   0.14454000    189133.54
   CG321    OG301     1   0.14150000    301248.00
   CG321    OG302     1   0.14400000    267776.00
   CG321    OG303     1   0.14400000    267776.00
   CG321    OG311     1   0.14200000    358150.40
   CG321    OG312     1   0.13300000    376560.00
   CG321   OG3C61     1   0.14150000    301248.00
   CG321   OG3R60     1   0.14000000    234304.00
   CG321      PG1     1   0.18900000    225936.00
   CG321      PG2     1   0.18900000    225936.00
   CG321    SG2P1     1   0.18137000    174690.37
   CG321    SG301     1   0.18160000    179075.20
   CG321    SG311     1   0.18180000    165686.40
   CG321    SG3O1     1   0.18070000    154808.00
   CG321    SG3O2     1   0.17900000    154808.00
   CG321    SG3O3     1   0.18100000    154808.00
   CG321    CLGA1     1   0.17880000    184096.00
   CG321    BRGA1     1   0.19660000    133888.00
   CG321    BG201     1   0.17000000    263592.00
   CG321     HGA2     1   0.11110000    258571.20
   CG322    CG324     1   0.15200000    142256.00
   CG322    CG331     1   0.15200000    142256.00
   CG322   CG3C51     1   0.15009000    238069.60
   CG322   NG2R51     1   0.14102000    281449.31
   CG322     FGA1     1   0.13740000    351456.00
   CG322     HGA6     1   0.10828000    286185.60
   CG323    CG331     1   0.15310000    158992.00
   CG323    SG302     1   0.18360000    171544.00
   CG323     HGA2     1   0.11110000    251040.00
   CG323     HGA3     1   0.11110000    251040.00
   CG324    CG324     1   0.15300000    186188.00
   CG324    CG331     1   0.15280000    186188.00
   CG324   CG3C31     1   0.15280000    186188.00
   CG324   CG3C41     1   0.14957000    218170.50
   CG324   CG3C50     1   0.15200000    171544.00
   CG324   CG3C51     1   0.15280000    186188.00
   CG324   CG3RC1     1   0.15240000    186188.00
   CG324    NG2D1     1   0.14400000    245182.40
   CG324    NG2O1     1   0.14900000    189116.80
   CG324    NG2P1     1   0.14530000    251040.00
   CG324   NG2R52     1   0.14680000    276144.00
   CG324   NG2R61     1   0.14380000    222488.38
   CG324    NG301     1   0.14500000    167360.00
   CG324    NG3P0     1   0.15100000    179912.00
   CG324    NG3P1     1   0.14800000    167360.00
   CG324    NG3P2     1   0.14900000    167360.00
   CG324    NG3P3     1   0.14900000    167360.00
   CG324   OG3C61     1   0.14150000    301248.00
   CG324     HGA2     1   0.11000000    238069.60
   CG324     HGP5     1   0.10800000    251040.00
   CG331    CG331     1   0.15300000    186188.00
   CG331   CG3C31     1   0.15000000    230120.00
   CG331   CG3C41     1   0.14998000    210932.18
   CG331   CG3C50     1   0.15280000    186188.00
   CG331   CG3C51     1   0.15280000    186188.00
   CG331   CG3C53     1   0.15280000    186188.00
   CG331   CG3RC1     1   0.15380000    186188.00
   CG331    NG2D1     1   0.14400000    259408.00
   CG331   NG2R43     1   0.14356000    283340.48
   CG331   NG2R51     1   0.14580000    334720.00
   CG331   NG2R53     1   0.14300000    267776.00
   CG331   NG2R61     1   0.14560000    334720.00
   CG331    NG2S0     1   0.14340000    263592.00
   CG331    NG2S1     1   0.14300000    267776.00
   CG331    NG2S3     1   0.14600000    222588.80
   CG331    NG301     1   0.14420000    263592.00
   CG331    NG311     1   0.14630000    213384.00
   CG331   NG3C51     1   0.14630000    213384.00
   CG331    NG3N1     1   0.14387000    193886.56
   CG331    OG301     1   0.14150000    301248.00
   CG331    OG302     1   0.14300000    284512.00
   CG331    OG303     1   0.14300000    284512.00
   CG331    OG311     1   0.14200000    358150.40
   CG331    OG312     1   0.13300000    376560.00
   CG331      PG0     1   0.18617000    207861.12
   CG331      PG1     1   0.18900000    225936.00
   CG331    SG301     1   0.18160000    179075.20
   CG331    SG311     1   0.18160000    200832.00
   CG331    SG3O1     1   0.18370000    163176.00
   CG331    SG3O2     1   0.17900000    175728.00
   CG331    SG3O3     1   0.18000000    200832.00
   CG331    BG201     1   0.17000000    263592.00
   CG331     HGA3     1   0.11110000    269449.60
   CG334    NG2O1     1   0.14800000    209200.00
   CG334    NG2P1     1   0.14530000    251040.00
   CG334   NG2R52     1   0.14680000    276144.00
   CG334   NG2R61     1   0.14649000    227241.41
   CG334    NG3P0     1   0.15100000    179912.00
   CG334    NG3P1     1   0.14800000    167360.00
   CG334    NG3P2     1   0.14900000    167360.00
   CG334    NG3P3     1   0.14800000    167360.00
   CG334     HGA3     1   0.11110000    269449.60
   CG334     HGP5     1   0.10800000    251040.00
  CG3AM0    NG301     1   0.14540000    196648.00
  CG3AM0   HGAAM0     1   0.11110000    260244.80
  CG3AM1    NG311     1   0.14630000    213384.00
  CG3AM1   HGAAM1     1   0.10980000    262587.84
  CG3AM2    NG321     1   0.14740000    220078.40
  CG3AM2   HGAAM2     1   0.10856000    263173.60
  CG3C31   CG3C31     1   0.15010000    200832.00
  CG3C31   CG3C50     1   0.14915000    231709.92
  CG3C31   CG3C51     1   0.14924000    231467.25
  CG3C31   CG3C52     1   0.15082000    222781.26
  CG3C31   CG3C54     1   0.14977000    237709.78
  CG3C31   CG3RC1     1   0.15240000    186188.00
  CG3C31   NG2R52     1   0.14359000    262822.14
  CG3C31   NG2R53     1   0.14542000    260487.47
  CG3C31    NG2S0     1   0.14257000    266822.05
  CG3C31    NG301     1   0.14329000    266679.79
  CG3C31    NG311     1   0.14482000    253776.34
  CG3C31    NG321     1   0.14569000    256136.11
  CG3C31    NG3P1     1   0.14915000    197451.33
  CG3C31    NG3P2     1   0.14986000    182974.69
  CG3C31    NG3P3     1   0.15122000    200078.88
  CG3C31    OG301     1   0.13757000    309716.42
  CG3C31   OG3C31     1   0.14500000    184096.00
  CG3C31   OG3C61     1   0.14061000    261759.41
  CG3C31    SG3O2     1   0.17257000    170129.81
  CG3C31     FGA2     1   0.13777000    276738.13
  CG3C31     HGA1     1   0.10830000    284512.00
  CG3C31     HGA2     1   0.10830000    284512.00
  CG3C41   CG3C41     1   0.15400000    225936.00
  CG3C41   CG3C51     1   0.15111000    186330.26
  CG3C41   CG3C52     1   0.15464000    213986.50
  CG3C41   CG3RC1     1   0.15104000    168447.84
  CG3C41   NG2R43     1   0.14500000    205016.00
  CG3C41   NG2R50     1   0.14535000    205124.78
  CG3C41   NG2R51     1   0.14292000    217978.03
  CG3C41   NG2R53     1   0.14602000    281273.58
  CG3C41    NG2S0     1   0.15120000    198212.82
  CG3C41    NG2S1     1   0.14436000    258286.69
  CG3C41    NG301     1   0.14653000    204128.99
  CG3C41    NG311     1   0.14762000    225618.02
  CG3C41    NG321     1   0.14094000    245182.40
  CG3C41   NG3C51     1   0.14346000    218513.58
  CG3C41    NG3P1     1   0.14693000    150389.70
  CG3C41    NG3P2     1   0.15090000    147661.73
  CG3C41    NG3P3     1   0.15258000    187501.78
  CG3C41    OG301     1   0.14367000    213216.64
  CG3C41    OG311     1   0.13714000    281273.58
  CG3C41   OG3C51     1   0.14223000    292880.00
  CG3C41   OG3C61     1   0.14053000    238981.71
  CG3C41   OG3R60     1   0.14064000    238011.02
  CG3C41    SG311     1   0.17977000    148849.98
  CG3C41    SG3O2     1   0.17869000    115746.18
  CG3C41     FGA2     1   0.13684000    294720.96
  CG3C41     HGA1     1   0.10930000    291206.40
  CG3C41     HGA2     1   0.10930000    291206.40
  CG3C50   CG3C50     1   0.15171000    165192.69
  CG3C50   CG3C51     1   0.15180000    163176.00
  CG3C50   CG3C52     1   0.15180000    163176.00
  CG3C50   CG3C53     1   0.15180000    163176.00
  CG3C50   CG3C54     1   0.15180000    163176.00
  CG3C50   CG3RC1     1   0.15240000    186188.00
  CG3C50   NG2R50     1   0.14969000    119746.08
  CG3C50   NG2R51     1   0.14580000    184096.00
  CG3C50   NG2R52     1   0.14713000    159594.50
  CG3C50   NG2R53     1   0.14768000    258905.92
  CG3C50    NG2S0     1   0.14340000    267776.00
  CG3C50    NG2S1     1   0.14358000    288712.74
  CG3C50    NG301     1   0.14560000    184096.00
  CG3C50    NG311     1   0.14560000    184096.00
  CG3C50    NG321     1   0.15340000    236730.72
  CG3C50   NG3C51     1   0.14780000    334720.00
  CG3C50    NG3P1     1   0.14566000    126390.27
  CG3C50    NG3P2     1   0.14850000    267776.00
  CG3C50    NG3P3     1   0.14850000    267776.00
  CG3C50    OG311     1   0.14200000    358150.40
  CG3C50   OG3C51     1   0.14441000    160297.41
  CG3C50   OG3C61     1   0.13921000    212304.53
  CG3C50   OG3R60     1   0.14446000    195392.80
  CG3C50    SG311     1   0.18095000    167518.99
  CG3C50    SG3O2     1   0.17784000    115018.16
  CG3C50     FGA1     1   0.13740000    351456.00
  CG3C50     FGA2     1   0.13740000    351456.00
  CG3C51   CG3C51     1   0.15180000    163176.00
  CG3C51   CG3C52     1   0.15180000    163176.00
  CG3C51   CG3C53     1   0.15000000    186188.00
  CG3C51   CG3C54     1   0.15180000    163176.00
  CG3C51   CG3RC1     1   0.15240000    186188.00
  CG3C51   NG2R50     1   0.14700000    334720.00
  CG3C51   NG2R51     1   0.14580000    184096.00
  CG3C51   NG2R53     1   0.14603000    250270.14
  CG3C51   NG2R57     1   0.14474000    204706.38
  CG3C51   NG2R61     1   0.14560000    184096.00
  CG3C51    NG2S0     1   0.14340000    267776.00
  CG3C51    NG2S1     1   0.14358000    288712.74
  CG3C51    NG2S3     1   0.14620000    301248.00
  CG3C51    NG301     1   0.14560000    184096.00
  CG3C51    NG311     1   0.14560000    184096.00
  CG3C51    NG321     1   0.14740000    220078.40
  CG3C51   NG3C51     1   0.14780000    334720.00
  CG3C51    NG3N1     1   0.14422000    243935.57
  CG3C51    OG301     1   0.14110000    279742.24
  CG3C51    OG303     1   0.14300000    284512.00
  CG3C51    OG311     1   0.14200000    358150.40
  CG3C51   OG3C51     1   0.14250000    292880.00
  CG3C51    SG311     1   0.18095000    167518.99
  CG3C51    SG3O1     1   0.17814000    125645.52
  CG3C51    SG3O2     1   0.17938000    132005.20
  CG3C51     FGA1     1   0.13740000    351456.00
  CG3C51     HGA1     1   0.11000000    256897.60
  CG3C51     HGA6     1   0.10828000    286185.60
  CG3C52   CG3C52     1   0.15300000    163176.00
  CG3C52   CG3C53     1   0.15270000    186188.00
  CG3C52   CG3C54     1   0.15370000    186188.00
  CG3C52   CG3RC1     1   0.15240000    186188.00
  CG3C52   NG2R50     1   0.14700000    334720.00
  CG3C52   NG2R51     1   0.14719000    214204.06
  CG3C52   NG2R53     1   0.14500000    309616.00
  CG3C52   NG2R57     1   0.14871000    229182.78
  CG3C52   NG2R61     1   0.14560000    184096.00
  CG3C52    NG2S0     1   0.14550000    267776.00
  CG3C52   NG3C51     1   0.14780000    334720.00
  CG3C52   OG3C51     1   0.14250000    292880.00
  CG3C52    SG311     1   0.18248000    168380.90
  CG3C52    SG3O2     1   0.18130000    155561.12
  CG3C52    SG3O3     1   0.18680000    130222.82
  CG3C52     HGA2     1   0.11000000    256897.60
  CG3C53   CG3C54     1   0.15270000    186188.00
  CG3C53   CG3RC1     1   0.15240000    186188.00
  CG3C53   NG2R50     1   0.14700000    334720.00
  CG3C53   NG2R52     1   0.14600000    267776.00
  CG3C53   NG2R61     1   0.14560000    184096.00
  CG3C53   NG3C51     1   0.14780000    334720.00
  CG3C53    NG3P0     1   0.15863000    122055.65
  CG3C53    NG3P1     1   0.14757000    179937.10
  CG3C53    NG3P2     1   0.14850000    267776.00
  CG3C53    NG3P3     1   0.14850000    267776.00
  CG3C53   OG3C51     1   0.14460000    200832.00
  CG3C53    SG311     1   0.18095000    167518.99
  CG3C53     HGA1     1   0.10800000    276144.00
  CG3C53     HGP5     1   0.10828000    286185.60
  CG3C54   CG3C54     1   0.15600000    175728.00
  CG3C54   CG3RC1     1   0.15240000    186188.00
  CG3C54    NG2P1     1   0.14212000    188849.02
  CG3C54   NG2R52     1   0.14600000    267776.00
  CG3C54   NG2RC0     1   0.14938000    202346.61
  CG3C54   NG3C51     1   0.14300000    196648.00
  CG3C54    NG3P0     1   0.14880000    163017.01
  CG3C54    NG3P1     1   0.15006000    159694.91
  CG3C54    NG3P2     1   0.15150000    267776.00
  CG3C54     HGA2     1   0.11110000    258571.20
  CG3C54     HGP5     1   0.11110000    258571.20
  CG3RC1   CG3RC1     1   0.15230000    186188.00
  CG3RC1   NG2R43     1   0.14339000    178857.63
  CG3RC1   NG2R50     1   0.14682000    188790.45
  CG3RC1   NG2R51     1   0.14580000    184096.00
  CG3RC1   NG2R52     1   0.14679000    206815.12
  CG3RC1   NG2R53     1   0.14500000    309616.00
  CG3RC1   NG2R61     1   0.14560000    184096.00
  CG3RC1    NG2S0     1   0.15021000    213760.56
  CG3RC1    NG2S1     1   0.14337000    263667.31
  CG3RC1    NG301     1   0.14524000    221074.19
  CG3RC1    NG311     1   0.14700000    212848.45
  CG3RC1    NG321     1   0.14479000    268336.66
  CG3RC1   NG3C51     1   0.14441000    233492.30
  CG3RC1    NG3N1     1   0.14395000    236613.57
  CG3RC1    NG3P0     1   0.14929000    130808.58
  CG3RC1    NG3P1     1   0.14740000    147101.07
  CG3RC1    NG3P2     1   0.15363000    167267.95
  CG3RC1    NG3P3     1   0.14722000    222781.26
  CG3RC1    OG311     1   0.14099000    247182.35
  CG3RC1   OG3C31     1   0.14250000    209200.00
  CG3RC1   OG3C51     1   0.14200000    217568.00
  CG3RC1   OG3C61     1   0.14240000    216915.30
  CG3RC1   OG3R60     1   0.13901000    225551.07
  CG3RC1    SG311     1   0.18167000    154891.68
  CG3RC1    SG3O2     1   0.18074000    141109.58
  CG3RC1    SG3O3     1   0.19024000    114424.03
  CG3RC1     HGA1     1   0.11110000    258571.20
  CG3RC1     HGP5     1   0.11110000    258571.20
   NG1T1    NG1T1     1   0.12457000    582588.53
   NG2D1    NG2D1     1   0.12550000    585760.00
   NG2D1    NG2P1     1   0.13207000    202371.71
   NG2D1   NG2R61     1   0.13406000    338042.10
   NG2D1    NG2S0     1   0.13326000    230546.77
   NG2D1    NG2S1     1   0.13600000    460240.00
   NG2D1    NG3N1     1   0.14234000    229617.92
   NG2D1    OG2D1     1   0.12165000    487402.53
   NG2D1    OG301     1   0.14215000    226714.22
   NG2D1    OG312     1   0.12693000    506540.14
   NG2D1   OG3R60     1   0.13201000    201041.20
   NG2D1    SG311     1   0.18207000     78240.80
   NG2D1    SG3O2     1   0.16316000    190606.30
   NG2D1    SG3O3     1   0.15734000    261901.66
   NG2D1     HGP1     1   0.10000000    380744.00
   NG2O1   NG2R61     1   0.14728000    142222.53
   NG2O1    OG2N1     1   0.12250000    485344.00
   NG2P1    OG301     1   0.13821000    273692.18
   NG2P1    OG311     1   0.13821000    273692.18
   NG2P1    SG311     1   0.16803000    184020.69
   NG2P1     HGP2     1   0.10000000    380744.00
  NG2R43     HGP1     1   0.10150000    337230.40
  NG2R50   NG2R50     1   0.12900000    284512.00
  NG2R50   NG2R51     1   0.13550000    301248.00
  NG2R50   NG2R52     1   0.13461000    253207.31
  NG2R50   NG2R53     1   0.13668000    245383.23
  NG2R50   NG2R57     1   0.13580000    263324.22
  NG2R50   NG2RC0     1   0.13454000    281566.46
  NG2R50    NG2S0     1   0.13640000    222613.90
  NG2R50   NG3C51     1   0.14110000    351456.00
  NG2R50   OG2R50     1   0.13950000    234304.00
  NG2R50   OG3C51     1   0.13994000    176807.47
  NG2R50   SG2R50     1   0.17000000    225936.00
  NG2R50    SG3O2     1   0.17780000    125921.66
  NG2R50     HGP1     1   0.10100000    396643.20
  NG2R51   NG2R51     1   0.13882000    225835.58
  NG2R51   NG2R52     1   0.13043000    320988.11
  NG2R51    NG3N1     1   0.13572000    289892.62
  NG2R51   OG2R50     1   0.13598000    206388.35
  NG2R51    OG301     1   0.13448000    219643.26
  NG2R51    OG311     1   0.13448000    219643.26
  NG2R51      PG2     1   0.19931000     64149.09
  NG2R51   SG2R50     1   0.17295000    182690.18
  NG2R51    SG311     1   0.17216000    214346.32
  NG2R51     HGP1     1   0.10100000    396643.20
  NG2R52    NG3N1     1   0.14018000    276989.17
  NG2R52    OG311     1   0.13940000    242253.60
  NG2R52    OG312     1   0.12886000    405555.12
  NG2R52     HGP2     1   0.10000000    379070.40
  NG2R53   NG2R53     1   0.14203000    254069.22
  NG2R53   NG3C51     1   0.14285000    186497.62
  NG2R53    SG311     1   0.17292000    183183.89
  NG2R53    SG3O2     1   0.17015000    157619.65
  NG2R53     HGP1     1   0.10150000    393296.00
  NG2R57   NG2R57     1   0.13650000    376560.00
  NG2R60     HGP1     1   0.10160000    410174.26
  NG2R61   NG2R61     1   0.13890000    215844.19
  NG2R61   NG2R62     1   0.13435000    253809.81
  NG2R61   NG2RC0     1   0.13654000    258964.50
  NG2R61    NG2S3     1   0.13676000    252872.59
  NG2R61    OG301     1   0.13724000    263583.63
  NG2R61    OG311     1   0.13626000    280955.60
  NG2R61    OG312     1   0.12771000    306377.58
  NG2R61   OG3R60     1   0.13608000    260663.20
  NG2R61     FGP1     1   0.13622000    322042.48
  NG2R61     HGP1     1   0.10100000    396643.20
  NG2R61     HGP2     1   0.10100000    396643.20
  NG2R62   NG2R62     1   0.13200000    351456.00
  NG2R62   NG2R67     1   0.13569000    251090.21
  NG2R62   NG2RC0     1   0.13655000    274579.18
   NG2S0    NG2S1     1   0.12977000     77136.22
   NG2S0    NG3N1     1   0.13938000    261734.30
   NG2S0    OG301     1   0.14222000    222446.54
   NG2S0    OG311     1   0.14095000    307155.81
   NG2S0   OG3C61     1   0.14425000    201518.18
   NG2S0    SG3O2     1   0.16650000    171585.84
   NG2S1    NG2S1     1   0.13700000    257525.20
   NG2S1    NG3N1     1   0.13628000    228245.57
   NG2S1    OG311     1   0.14032000    266127.50
   NG2S1    SG3O3     1   0.17221000    158456.45
   NG2S1     HGP1     1   0.09970000    368192.00
   NG2S2     HGP1     1   0.10000000    401664.00
   NG2S3      PG0     1   0.17096000    198965.94
   NG2S3      PG1     1   0.17920000    150624.00
   NG2S3    SG3O1     1   0.17000000    187443.20
   NG2S3     HGP1     1   0.10250000    361916.00
   NG2S3     HGP4     1   0.10000000    408358.40
   NG301    OG301     1   0.14401000    190874.08
   NG301    OG311     1   0.14104000    195928.35
   NG301   OG3C61     1   0.14467000    190146.06
   NG301    SG3O2     1   0.16300000    179912.00
   NG311    OG311     1   0.14007000    237843.66
   NG311   OG3R60     1   0.14174000    197811.15
   NG311    SG3O2     1   0.16500000    196648.00
   NG311    SG3O3     1   0.17337000    146306.11
   NG311     HGP1     1   0.10210000    369865.60
   NG311   HGPAM1     1   0.10190000    374719.04
   NG321    OG301     1   0.14471000    235082.22
   NG321    SG3O2     1   0.16800000    200832.00
   NG321     HGP1     1   0.10200000    379907.20
   NG321   HGPAM2     1   0.10140000    379154.08
   NG331   HGPAM3     1   0.10140000    381162.40
  NG3C51    NG3P2     1   0.14400000    225936.00
  NG3C51    OG312     1   0.13754000    262102.50
  NG3C51   OG3C51     1   0.14528000    180497.76
  NG3C51    SG3O2     1   0.17632000    177912.05
  NG3C51    SG3O3     1   0.19072000     61914.83
  NG3C51     HGP1     1   0.10180000    376560.00
   NG3N1    NG3N1     1   0.14000000    297064.00
   NG3N1     HGP1     1   0.10100000    365681.60
   NG3P0    OG311     1   0.14000000    205016.00
   NG3P0    OG312     1   0.14000000    259408.00
   NG3P1     HGP2     1   0.10400000    337230.40
   NG3P2     HGP2     1   0.10060000    384928.00
   NG3P3     HGP2     1   0.10400000    337230.40
   OG2D2    BG201     1   0.13500000    259408.00
   OG2P1      PG0     1   0.14800000    485344.00
   OG2P1      PG1     1   0.15100000    418400.00
   OG2P1      PG2     1   0.15200000    334720.00
   OG2P1    SG3O1     1   0.14480000    451872.00
   OG2P1    SG3O2     1   0.14400000    527184.00
   OG2P1    SG3O3     1   0.15300000    451872.00
   OG2S1      PG2     1   0.14770000    483670.40
   OG301    OG311     1   0.15130000    139578.24
   OG301    SG301     1   0.16857000    196673.10
   OG303      PG0     1   0.16100000    192464.00
   OG303      PG1     1   0.16500000    158992.00
   OG303      PG2     1   0.16550000    125520.00
   OG303    SG3O1     1   0.15750000    209200.00
   OG303    SG3O2     1   0.16000000    196648.00
   OG304      PG0     1   0.16750000    276144.00
   OG304      PG1     1   0.16750000    276144.00
   OG304      PG2     1   0.17150000    251040.00
   OG311      PG0     1   0.15800000    198321.60
   OG311      PG1     1   0.16100000    198321.60
   OG311      PG2     1   0.16100000    198321.60
   OG311    SG301     1   0.17016000    212195.74
   OG311    SG3O2     1   0.16156000    226672.38
   OG311    BG201     1   0.14500000    205016.00
   OG311     HGP1     1   0.09600000    456056.00
   OG312    SG301     1   0.16221000    258638.14
  OG3C51    BG201     1   0.14350000    292880.00
     PG0    SG2P1     1   0.19953000    217902.72
     PG0    SG2P2     1   0.19953000    217902.72
     PG2    SG2P1     1   0.19953000    217902.72
     PG2    SG2P2     1   0.19953000    216647.52
  SG2R50   SG2R50     1   0.20092000    141586.56
   SG301    SG301     1   0.20290000    144766.40
   SG301    SG311     1   0.20694000    164029.54
   SG301    SG3O1     1   0.21784000     85587.90
   SG311     HGP3     1   0.13250000    230120.00
    FGP1     ALG1     1   0.17260000    171544.00
   OC2D3    CC2O3     1   0.12150000    585760.00
   CC2O3    CC331     1   0.15000000    276144.00
   CC2O3    CC312     1   0.15000000    276144.00
   CC2O3    CC322     1   0.15000000    276144.00
   OC2D4    CC2O4     1   0.12150000    585760.00
    HCR1    CC2O4     1   0.11100000    276144.00
   CC2O4    CC331     1   0.15000000    209200.00
   CC2O4    CC312     1   0.15000000    209200.00
   CC311    CC311     1   0.15000000    186188.00
   CC312    CC312     1   0.14850000    186188.00
  CC3161   CC3163     1   0.15000000    186188.00
  CC3161   CC3263     1   0.15000000    186188.00
   CC312    CC322     1   0.14850000    186188.00
   CC301    CC331     1   0.15380000    186188.00
   CC311    CC321     1   0.15380000    186188.00
   CC311    CC331     1   0.15380000    186188.00
   CC331   CC3163     1   0.15380000    186188.00
  CC3161   CC3161     1   0.14800000    186188.00
  CC3261   CC3161     1   0.14800000    186188.00
  CC3161   CC3162     1   0.14800000    186188.00
  CC3261   CC3062     1   0.15150000    186188.00
   CC321   CC3163     1   0.14900000    186188.00
   CC312   CC3163     1   0.14900000    186188.00
   CC301    CC2O2     1   0.15220000    167360.00
   CC311    CC2O2     1   0.15220000    167360.00
  CC3163    CC2O2     1   0.14800000    167360.00
  CC3062    CC2O2     1   0.14800000    167360.00
   CC2O1    CC331     1   0.15200000    209200.00
   CC321    CC331     1   0.15280000    186188.00
   CC321    CC321     1   0.15300000    186188.00
  CC321C   CC321C     1   0.15300000    186188.00
  CC321C   CC321D     1   0.15300000    186188.00
  CC321C   CC311C     1   0.15380000    186188.00
   CC321   CC311C     1   0.14900000    186188.00
  CC321C   CC311D     1   0.15380000    186188.00
  CC321D   CC311C     1   0.15380000    186188.00
   CC321    CC2O2     1   0.15220000    167360.00
  CC3161    OC311     1   0.14100000    343088.00
  CC3162    OC311     1   0.14000000    358150.40
  CC3062    OC311     1   0.14000000    358150.40
   CC301    OC311     1   0.14200000    358150.40
   CC311    OC311     1   0.14200000    358150.40
   CC312    OC311     1   0.14200000    334720.00
   CC311   OC311M     1   0.14200000    358150.40
   CC321    OC311     1   0.14200000    358150.40
   CC321   OC311M     1   0.14200000    358150.40
   CC331   OC311M     1   0.14200000    358150.40
   CC322    OC311     1   0.14200000    334720.00
   CC2O1    OC2D1     1   0.12300000    518816.00
   CC2O2    OC2D2     1   0.12600000    439320.00
   CC301    OC301     1   0.14150000    301248.00
   CC311    OC301     1   0.14150000    301248.00
   CC321    OC301     1   0.14150000    301248.00
   CC331    OC301     1   0.14150000    301248.00
  CC311D    OC301     1   0.13950000    301248.00
  CC3162    OC301     1   0.13950000    301248.00
  CC3062    OC301     1   0.13950000    301248.00
  CC311D    OC302     1   0.14150000    301248.00
  CC3162    OC302     1   0.14150000    301248.00
  CC311C    OC301     1   0.14350000    301248.00
  CC3161    OC301     1   0.14150000    301248.00
  CC321D   OC3C61     1   0.14150000    301248.00
  CC311D   OC3C61     1   0.14150000    301248.00
  CC3162   OC3C61     1   0.14250000    301248.00
  CC3062   OC3C61     1   0.14250000    301248.00
  CC321C   OC3C61     1   0.14150000    301248.00
  CC311C   OC3C61     1   0.14150000    301248.00
  CC3163   OC3C61     1   0.14250000    301248.00
  CC3263   OC3C61     1   0.14250000    301248.00
   NC2D1    CC311     1   0.14300000    267776.00
   NC2D1   CC3161     1   0.14300000    267776.00
   NC2D1    CC331     1   0.14300000    267776.00
   NC2D1    CC2O1     1   0.13450000    309616.00
   CC311     HCA1     1   0.11110000    258571.20
   CC312     HCA1     1   0.11110000    258571.20
  CC3161     HCA1     1   0.11110000    258571.20
  CC3162     HCA1     1   0.11110000    258571.20
  CC3163     HCA1     1   0.11110000    258571.20
  CC311C     HCA1     1   0.11110000    258571.20
  CC311D     HCA1     1   0.11110000    258571.20
   CC321     HCA2     1   0.11110000    258571.20
   CC322     HCA2     1   0.11110000    258571.20
  CC3263     HCA2     1   0.11110000    258571.20
   CC331     HCA3     1   0.11110000    269449.60
  CC321C     HCA2     1   0.11110000    258571.20
  CC321D     HCA2     1   0.11110000    258571.20
  CC3261     HCA2     1   0.11110000    258571.20
   OC311     HCP1     1   0.09600000    456056.00
  OC311M     HCP1     1   0.09600000    456056.00
  OC311M    HCP1M     1   0.09600000    456056.00
   NC2D1     HCP1     1   0.09970000    368192.00
  CC322C   OC3C5M     1   0.14250000    292880.00
  CC322C   CC322C     1   0.15180000    163176.00
  CC322C   HCA2C2     1   0.11000000    256897.60
  CC312C    CC331     1   0.15280000    186188.00
  CC312C   OC3C5M     1   0.14250000    292880.00
  CC312C   CC322C     1   0.15180000    163176.00
  CC312C   HCA1C2     1   0.11000000    256897.60
  CC312C    OC301     1   0.13950000    301248.00
  OC3C51   CC3152     1   0.14250000    292880.00
  OC3C51   CC3051     1   0.14250000    292880.00
  OC3C51   CC3153     1   0.14250000    292880.00
   OC311   CC3152     1   0.13950000    358150.40
   OC311   CC3051     1   0.13950000    358150.40
   OC311   CC3151     1   0.13950000    343088.00
  CC3152     HCA1     1   0.11110000    258571.20
  CC3251     HCA2     1   0.11000000    256897.60
  CC3151     HCA1     1   0.11110000    258571.20
  CC3153     HCA1     1   0.11110000    258571.20
  CC3152   CC3251     1   0.15080000    163176.00
  CC3051   CC3251     1   0.15080000    163176.00
  CC3251   CC3151     1   0.15080000    163176.00
  CC3151   CC3153     1   0.15080000    163176.00
  CC3151   CC3152     1   0.15080000    163176.00
  CC3151   CC3051     1   0.15080000    163176.00
  CC3151   CC3151     1   0.15080000    163176.00
  CC3153    CC321     1   0.14900000    186188.00
  CC3051    CC321     1   0.14900000    186188.00
  CC3152    OC301     1   0.13950000    301248.00
  CC321D   CC311D     1   0.15380000    186188.00
  CC311D   CC311D     1   0.15380000    186188.00
  CC3161    OC30P     1   0.14250000    301248.00
  CC311D    OC30P     1   0.14250000    301248.00
  CC3162    OC30P     1   0.14250000    301248.00
   CC321    OC30P     1   0.14520000    301248.00
   OC30P       PC     1   0.16750000    225936.00
   OC2DP       PC     1   0.15250000    485344.00
   OC312       PC     1   0.16100000    198321.60
   OC312     HCP1     1   0.09600000    456056.00
      SC    OC2DP     1   0.14480000    451872.00
      SC    OC30P     1   0.16100000    209200.00
  CC312D    OC301     1   0.13950000    301248.00
  CC312D   OC3C5M     1   0.14250000    292880.00
  CC312D   CC322C     1   0.15180000    163176.00
  CC312D     HCA1     1   0.11000000    256897.60
  CC312D    OC302     1   0.14250000    301248.00
  CC312C     HCA1     1   0.11000000    256897.60
  CC312C    CC321     1   0.15000000    186188.00
   CC331    OC303     1   0.14150000    301248.00
  CC312C    OC303     1   0.14250000    301248.00
  CC311D    OC303     1   0.13950000    301248.00
  CC3051    OC302     1   0.14250000    301248.00
  CC3162    OC303     1   0.13950000    301248.00
   OC303   CC3151     1   0.14250000    301248.00
   OC301   CC3051     1   0.13950000    301248.00
   OC301    CC312     1   0.14200000    334720.00
   OC301    CC322     1   0.14200000    334720.00
   CC2O5    OC301     1   0.13340000    125520.00
   CC2O5    CC331     1   0.15220000    167360.00
   CC2O5    OC2D1     1   0.12200000    627600.00
      SC    NC311     1   0.17000000    154808.00
  CC3161    NC311     1   0.14550000    225936.00
   NC311     HCP1     1   0.10300000    361497.60
     CN8      NN6     1   0.14800000    167360.00
     NN6      HN1     1   0.10400000    337230.40
     ON6     CN8B     1   0.14200000    217568.00
     CN8     CN8B     1   0.15280000    186188.00
     CN1      CN3     1   0.14090000    252713.60
     CN1     CN3T     1   0.14030000    252713.60
     CN1     CN5G     1   0.13600000    252713.60
     CN1      NN2     1   0.13670000    317984.00
    CN1T     NN2B     1   0.13480000    252713.60
     CN1     NN2G     1   0.13960000    284512.00
     CN1     NN2U     1   0.13890000    284512.00
    CN1T     NN2U     1   0.13830000    284512.00
     CN1      NN3     1   0.13350000    292880.00
    CN1T      ON1     1   0.12300000    719648.00
     CN1      ON1     1   0.12340000    552288.00
     CN1     ON1C     1   0.12450000    518816.00
     CN2      CN3     1   0.14060000    267776.00
     CN2      CN5     1   0.13580000    301248.00
     CN2      NN1     1   0.13660000    301248.00
     CN2     NN2G     1   0.13920000    334720.00
     CN2      NN3     1   0.13430000    376560.00
     CN2     NN3A     1   0.13420000    334720.00
     CN2     NN3G     1   0.13260000    267776.00
     CN3      CN3     1   0.13260000    418400.00
     CN3     CN3T     1   0.13200000    468608.00
    CN3T      CN9     1   0.14780000    192464.00
     CN3      HN3     1   0.10900000    292880.00
    CN3T      HN3     1   0.10900000    292880.00
     CN3      NN2     1   0.13430000    252713.60
     CN3     NN2B     1   0.13430000    267776.00
     CN4      HN3     1   0.10900000    317984.00
     CN4      NN2     1   0.13740000    267776.00
     CN4     NN2B     1   0.13780000    251040.00
     CN4     NN3A     1   0.13220000    351456.00
     CN4      NN4     1   0.13050000    334720.00
     CN5      CN5     1   0.13610000    259408.00
     CN5     CN5G     1   0.13500000    267776.00
     CN5      NN2     1   0.13750000    251040.00
     CN5     NN2B     1   0.13750000    252713.60
     CN5     NN3A     1   0.13120000    292880.00
     CN5     NN3G     1   0.13150000    292880.00
     CN5      NN4     1   0.13550000    259408.00
    CN5G      NN4     1   0.13650000    259408.00
     CN8      CN8     1   0.15280000    186188.00
     CN8      CN9     1   0.15280000    186188.00
     CN8      NN2     1   0.14600000    334720.00
     CN8      ON5     1   0.14200000    358150.40
     CN9      HN9     1   0.11110000    269449.60
     CN9      ON2     1   0.14300000    284512.00
     HN1      NN1     1   0.10000000    408358.40
     HN2      NN2     1   0.10100000    396643.20
     HN2     NN2B     1   0.10100000    396643.20
     HN2     NN2G     1   0.10100000    394132.80
     HN2     NN2U     1   0.10100000    396643.20
     HN4      ON4     1   0.09600000    456056.00
     ON2        P     1   0.16000000    225936.00
     ON2       P2     1   0.16000000    225936.00
     ON3        P     1   0.14800000    485344.00
     ON3       P2     1   0.14800000    485344.00
     ON4        P     1   0.15800000    198321.60
     ON4       P2     1   0.15800000    198321.60
    CN7B      ON6     1   0.14200000    217568.00
    CN7B      CN8     1   0.15180000    167360.00
     CN7      ON6     1   0.14460000    200832.00
     CN7      CN7     1   0.15290000    186188.00
     CN7      CN8     1   0.15160000    186188.00
     CN7      CN9     1   0.15160000    186188.00
     CN7      HN7     1   0.11110000    258571.20
     CN8      HN8     1   0.11110000    258571.20
    CN7B      HN7     1   0.11110000    258571.20
    CN7B     ON6B     1   0.14200000    217568.00
     CN7     ON6B     1   0.14800000    200832.00
    CN7B     CN7B     1   0.14500000    167360.00
     CN7     CN7B     1   0.14600000    186188.00
     CN7     CN8B     1   0.15120000    186188.00
    CN8B      ON2     1   0.14400000    267776.00
    CN8B      ON5     1   0.14200000    358150.40
     CN7      ON2     1   0.14330000    259408.00
    CN7B      ON2     1   0.14330000    259408.00
     CN7      ON5     1   0.14200000    358150.40
     CN9      NN2     1   0.14560000    334720.00
     CN8     NN2B     1   0.14580000    334720.00
     CN9     NN2B     1   0.14580000    334720.00
    CN7B      NN2     1   0.14560000    184096.00
    CN7B     NN2B     1   0.14580000    184096.00
    CN8B      HN8     1   0.11110000    258571.20
     ON5      HN5     1   0.09600000    456056.00
    CN7B      ON5     1   0.14000000    358150.40
     CN8      ON2     1   0.14400000    284512.00
     ON2       P3     1   0.16800000    251040.00
     ON3       P3     1   0.15300000    401664.00
     ON2       P4     1   0.16800000    251040.00
     ON3       P4     1   0.15300000    401664.00
     ON4       P4     1   0.15800000    198321.60
    CTL3       CL     1   0.15220000    167360.00
    CTL2       CL     1   0.15220000    167360.00
    CTL1       CL     1   0.15220000    167360.00
    CTL1      CCL     1   0.15220000    167360.00
     OBL       CL     1   0.12200000    627600.00
     OCL       CL     1   0.12600000    439320.00
     OCL      CCL     1   0.12600000    439320.00
     OSL       CL     1   0.13340000    125520.00
    OSLP       CL     1   0.13340000    125520.00
     OHL       CL     1   0.14000000    192464.00
     HOL      OHL     1   0.09600000    456056.00
    CTL1     HAL1     1   0.11110000    258571.20
    CTL1      HBL     1   0.10800000    276144.00
    CTL2     HAL2     1   0.11110000    258571.20
    CTL3     HAL3     1   0.11110000    269449.60
    CTL3      OSL     1   0.14300000    284512.00
    CTL2      OSL     1   0.14300000    284512.00
    CTL1      OSL     1   0.14300000    284512.00
    CTL3     OSLP     1   0.14300000    284512.00
    CTL2     OSLP     1   0.14300000    284512.00
    CTL1     OSLP     1   0.14300000    284512.00
     OSL       PL     1   0.16000000    225936.00
    OSLP       PL     1   0.16000000    225936.00
     O2L       PL     1   0.14800000    485344.00
     OHL       PL     1   0.15900000    198321.60
    NH3L      HCL     1   0.10400000    343088.00
    NH3L     CTL1     1   0.14800000    167360.00
    NH3L     CTL2     1   0.15100000    218404.80
     NTL     CTL2     1   0.15100000    179912.00
     NTL     CTL5     1   0.15100000    179912.00
    CTL5       HL     1   0.10800000    251040.00
    CTL2       HL     1   0.10800000    251040.00
    CTL1     CTL1     1   0.15000000    186188.00
    CTL1     CTL2     1   0.15380000    186188.00
    CTL1     CTL3     1   0.15380000    186188.00
    CTL2     CTL2     1   0.15300000    186188.00
    CTL2     CTL3     1   0.15280000    186188.00
    CTL3     CTL3     1   0.15300000    186188.00
     OHL     CTL1     1   0.14200000    358150.40
     OHL     CTL2     1   0.14200000    358150.40
     OHL     CTL3     1   0.14200000    358150.40
      SL      O2L     1   0.14480000    451872.00
      SL      OSL     1   0.15750000    209200.00
    CEL2     CEL2     1   0.13300000    426768.00
    HEL2     CEL2     1   0.11000000    305432.00
    CEL1     CTL3     1   0.15040000    320494.40
    CEL1     CEL2     1   0.13420000    418400.00
    HEL1     CEL1     1   0.11000000    301666.40
    CEL1     CTL2     1   0.15020000    305432.00
    CEL1     CEL1     1   0.13400000    368192.00
   CC31A    HCA1A     1   0.11110000    258571.20
   CC32A    HCA2A     1   0.11110000    258571.20
   CC33A    HCA3A     1   0.11110000    269449.60
   CC30A    CC32A     1   0.15380000    186188.00
   CC30A    CC33A     1   0.15380000    186188.00
   CC31A    CC31A     1   0.15000000    186188.00
   CC31A    CC32A     1   0.15380000    186188.00
   CC31A    CC33A     1   0.15380000    186188.00
   CC32A    CC32A     1   0.15300000    186188.00
   CC32A    CC33A     1   0.15280000    186188.00
   CC33A    CC33A     1   0.15300000    186188.00
  CC325A   CC325A     1   0.15480000    163176.00
  CC325A   HCA25A     1   0.11160000    256897.60
  CC325B   OC305A     1   0.14250000    292880.00
  CC325B   CC325B     1   0.15180000    163176.00
  CC325B   HCA25A     1   0.11000000    256897.60
  CC325B    CC33A     1   0.15280000    186188.00
   CC32A    OC30A     1   0.14150000    301248.00
   CC33A    OC30A     1   0.14150000    301248.00
  CC326A    HCA2A     1   0.11110000    258571.20
  CC326A   CC326A     1   0.15300000    186188.00
  CC326A    OC30A     1   0.14150000    301248.00
      SI     OSIE     1   0.16980000    252713.60
      AL     OSIE     1   0.16980000    252713.60
      SI     OSIA     1   0.16980000    252713.60
      SI     OSIH     1   0.16800000    271960.00
      AL      OAL     1   0.20000000    252713.60
    SIH3     OSIE     1   0.16820000    254387.20
    HSIO     OSIH     1   0.09750000    473628.80
     HAL      OAL     1   0.09600000    473628.80
      AL      HAL     1   0.09572000    376560.00
      SI     HSIA     1   0.14890000    170707.20
    HSIA     SIH3     1   0.14890000    170707.20
      SI      OAL     1   0.16820000    254387.20
      HT       HT     1   0.15139000         0.00
      HT       OT     1   0.09572000    376560.00
     CST      OST     1   0.11600000    784884.93
      SS       FE     1   0.23200000    209200.00
       C        C     1   0.13350000    502080.00
     CPB      CE1     1   0.13800000    376560.00
     CPB      CPA     1   0.14432000    250872.64
     CPB      CPB     1   0.13464000    285097.76
     CPM      CPA     1   0.13716000    301248.00
     CT2      CPB     1   0.14900000    192464.00
     CT3      CPB     1   0.14900000    192464.00
      FE       CM     1   0.19000000    215894.40
      FE      CPM     1   0.33814000         0.00
      HA       CA     1   0.10830000    284512.00
      HA       CC     1   0.11000000    265374.38
      HA      CP2     1   0.11110000    258571.20
      HA      CP3     1   0.11110000    258571.20
      HA      CPM     1   0.10900000    307607.68
      HA       CS     1   0.11110000    251040.00
      HA      CT1     1   0.11110000    258571.20
      HA      CT2     1   0.11110000    258571.20
      HA      CT3     1   0.11110000    269449.60
      HA       CY     1   0.10800000    276144.00
      HB      CP1     1   0.10800000    276144.00
      HB      CT1     1   0.10800000    276144.00
      HB      CT2     1   0.10800000    276144.00
      HB      CT3     1   0.10800000    276144.00
     NPH      CPA     1   0.13757000    315640.96
     NPH       FE     1   0.19580000    226103.36
     NR2       FE     1   0.22000000     54392.00
      OM       CM     1   0.11280000    933032.00
      OM       FE     1   0.18000000    209200.00
      OM       OM     1   0.12300000    502080.00
      OX       HX     1   0.09700000    456056.00
    HPER     OPER     1   0.09630000    435972.80
    OPER     OPER     1   0.14420000    238906.40
     OH1       FE     1   0.20000000    209200.00
    CEL1     CTL1     1   0.15020000    200832.00
    CTL1     CRL1     1   0.15000000    186188.00
    CRL1     CRL1     1   0.15000000    186188.00
    CRL1     CTL2     1   0.15380000    186188.00
    CRL1     CRL2     1   0.15380000    186188.00
    CTL1     CRL2     1   0.15380000    186188.00
    CRL2     CRL2     1   0.15300000    186188.00
    CTL2     CRL2     1   0.15300000    186188.00
    CRL1     HGA1     1   0.11110000    258571.20
    CRL2     HGA2     1   0.11110000    258571.20
     OHL     CRL1     1   0.14200000    358150.40
    CRL1     CTL3     1   0.15380000    186188.00
    CEL1     CRL2     1   0.15020000    305432.00
    CEL1     CRL1     1   0.15020000    200832.00
    CRL1      OSL     1   0.14300000    284512.00
    CTL2   CG3RC1     1   0.15300000    186188.00
    CTL3   CG3RC1     1   0.15380000    186188.00
    CTL3   CG3C31     1   0.15010000    200832.00
    CTL2   CG3C31     1   0.15010000    200832.00
     OSL        C     1   0.13340000    125520.00
      CA     ON2B     1   0.13800000    284512.00
    ON2B        P     1   0.16100000    225936.00
     CT2        P     1   0.18900000    225936.00
     CF2       CA     1   0.14500000    165686.40
     CF2        P     1   0.18800000    225936.00
     CT1      ON2     1   0.14330000    259408.00
     CT2      ON2     1   0.14400000    267776.00
    CN8B        S     1   0.18160000    200832.00
    CN8B       SP     1   0.18160000    165686.40
     CT2       SP     1   0.18160000    165686.40
     CT3       SP     1   0.18160000    200832.00
    CN7B      NR1     1   0.14620000    184096.00
       S      CN8     1   0.18180000    165686.40
  CC311D    NC2D1     1   0.14300000    267776.00
  CC3162    NC2D1     1   0.14300000    267776.00
   CC321      CT1     1   0.15380000    186188.00
   CC2O1    CC321     1   0.15220000    167360.00
   OC301      CT2     1   0.14250000    301248.00
   OC301      CT1     1   0.14250000    301248.00
   OC30P       PL     1   0.16750000    225936.00
   OC2DP       PL     1   0.15250000    485344.00
   OC312       PL     1   0.16100000    198321.60
    CTL2    OC301     1   0.14150000    301248.00
  CC3162    OG303     1   0.14250000    301248.00
    CTO2    OC301     1   0.14150000    301248.00
     OSL    CC321     1   0.14150000    301248.00
    CTL2   CC311C     1   0.15380000    186188.00
      CL      NHL     1   0.13450000    309616.00
     NHL    CC321     1   0.14300000    267776.00
     NHL    CC322     1   0.14300000    267776.00
     NHL    CC331     1   0.14300000    267776.00
   OC301   CG2R61     1   0.14150000    301248.00
   CC301   CC311C     1   0.15380000    186188.00
      SS       ZN     1   0.23200000     16736.00
     NR2       ZN     1   0.20700000     16736.00
      CT        C     1   0.14900000    209200.00
     CT3       CT     1   0.15380000    186188.00
     NH1       CT     1   0.14300000    267776.00
    CT2A       CT     1   0.15380000    186188.00
     NH2       CT     1   0.14550000    200832.00
      CT       CC     1   0.15220000    167360.00
      CT       CD     1   0.15220000    167360.00
     NH3       CT     1   0.14800000    167360.00
     CT3        N     1   0.14340000    263592.00
     CT2   NG2R51     1   0.14580000    334720.00
     CT2   CG2R51     1   0.15000000    192154.38
     CP2      OH1     1   0.14300000    358150.40
     HA1      CP2     1   0.11110000    258571.20
     NR1      CT3     1   0.14580000    334720.00
     NR3      CT3     1   0.14580000    334720.00
     CT2    CG1T1     1   0.14650000    343088.00
  CG2R64        S     1   0.17410000    219241.60
   NG2S3       HC     1   0.10190000    374719.04
     NH3   CG2R64     1   0.13700000    309616.00
     CT3   CG2R51     1   0.15000000    192154.38
  NG2R50      CT3     1   0.14630000    213384.00
  NG2R50      CT2     1   0.14630000    213384.00
   CG2O1      NH1     1   0.13450000    309616.00
  CG2R51      CT1     1   0.15000000    192154.38
  CG2R61      CT1     1   0.14900000    192464.00
   CG301      CT1     1   0.15000000    186188.00
       C    NG2S0     1   0.13500000    359824.00
       C    NG2S1     1   0.13450000    309616.00
     CT1    CG2D1     1   0.15020000    305432.00
     CT1   CG2R53     1   0.15000000    355640.00
     CT1    CG311     1   0.15000000    186188.00
     CT1    CG321     1   0.15380000    186188.00
     CT1    CG322     1   0.15200000    142256.00
     CT1    CG324     1   0.15300000    186188.00
     CT1    CG331     1   0.15380000    186188.00
     CT1   CG3C51     1   0.15280000    186188.00
       C    NG2D1     1   0.14304000    284202.38
  CG2R51     CTD1     1   0.15000000    192154.38
  CG2R61     CTD1     1   0.14900000    192464.00
    CTD1    CG311     1   0.15000000    186188.00
    CTD1    CG321     1   0.15380000    186188.00
    CTD1    CG322     1   0.15200000    142256.00
    CTD1    CG324     1   0.15300000    186188.00
   CG2O1        N     1   0.13000000    217568.00
     CN4     NN2G     1   0.13650000    292880.00
     CN4     NN3I     1   0.12950000    376560.00
     CN5     NN3I     1   0.13320000    292880.00
     CN2     CN3D     1   0.14050000    217568.00
    CN3D      CN3     1   0.13350000    468608.00
    CN3D      CN9     1   0.14800000    192464.00
     CN1     NN3G     1   0.13100000    401664.00
     CN1      ON5     1   0.13300000    376560.00
     CN1     NN2C     1   0.13830000    334720.00
     CN2     NN2C     1   0.13890000    334720.00
     CN2     NN1C     1   0.13430000    464424.00
    NN1C      HN1     1   0.10000000    408358.40
    NN2C      HN2     1   0.10100000    396643.20
     NN3      CN8     1   0.13400000    334720.00
     CNA      CNA     1   0.13750000    255224.00
     CN9      CNA     1   0.14900000    192464.00
     CN8      CNA     1   0.14900000    192464.00
    CN7B      CNA     1   0.14900000    192464.00
     HNP      CNA     1   0.10800000    284512.00
    CNA2      CNA     1   0.13700000    255224.00
     HN3      CNA     1   0.10800000    284512.00
    CNA2      FNA     1   0.13580000    334720.00
    CN3T     CNE1     1   0.14750000    305432.00
    CNE2     HNE2     1   0.11000000    305432.00
    CNE2     CNE1     1   0.13420000    418400.00
    CNE1     HNE1     1   0.11000000    301666.40
     NN1      CN8     1   0.14500000    359824.00
     CN4      NN1     1   0.13780000    251040.00
     NN1      CN3     1   0.14140000    255224.00
     NNG      CN8     1   0.14900000    218404.80
     NNG      CNG     1   0.13650000    387438.40
     NNG      HN1     1   0.10000000    380744.00
     NN1     CN8B     1   0.14620000    301248.00
     NN1        P     1   0.17920000    150624.00
     NN1      HN2     1   0.10250000    361916.00
     NN1      CN7     1   0.14620000    301248.00
     ON2      HN8     1   0.09600000    456056.00
     ON5      HN7     1   0.09600000    456056.00
       N       CC     1   0.13500000    359824.00
     CT2      NN2     1   0.14580000    334720.00
     CT2     NN2B     1   0.14580000    334720.00
     HB2     CT2P     1   0.10800000    276144.00
     CT2     CT2P     1   0.15300000    186188.00
     CT2        N     1   0.14340000    267776.00
    CT2P        N     1   0.14340000    267776.00
    CN7B     ON2M     1   0.14110000    279742.24
     CN9     ON2M     1   0.14150000    301248.00
     CN8      CN6     1   0.15000000    334720.00
     CN7      CN6     1   0.15380000    186188.00
    CN7E     CN8B     1   0.15160000    186188.00
     CN6     CN8B     1   0.15320000    186188.00
     CN6      HN7     1   0.11110000    258571.20
    CN7E      HN7     1   0.11050000    258571.20
    CN7E      CN6     1   0.15350000    334720.00
    CN7E      CN8     1   0.15000000    334720.00
    CN7E     CN7E     1   0.15120000    186188.00
     CN7     CN7E     1   0.15100000    186188.00
     CN6      NN2     1   0.14560000    184096.00
     CN7      NN2     1   0.14560000    184096.00
     CN6     NN2B     1   0.14580000    184096.00
     CN7     NN2B     1   0.14580000    184096.00
    ON6B     CN8B     1   0.14350000    267776.00
     CN5     NN2U     1   0.13830000    284512.00
    NN2G      CN8     1   0.14600000    334720.00
    NN2G      CN9     1   0.14600000    334720.00
    CN1T     NN2G     1   0.13830000    284512.00
    CTD1        C     1   0.14900000    209200.00
    CTD1       CC     1   0.15220000    167360.00
    CTD1       CD     1   0.15220000    167360.00
     CT1     CTD1     1   0.15000000    186188.00
     CT2     CTD1     1   0.15380000    186188.00
     CT3     CTD1     1   0.15380000    186188.00
    CT2A     CTD1     1   0.15380000    186188.00
      HA     CTD1     1   0.11110000    258571.20
     HB1     CTD1     1   0.10800000    276144.00
     NH1     CTD1     1   0.14300000    267776.00
     NH3     CTD1     1   0.14800000    167360.00
     OH1     CTD1     1   0.14200000    358150.40
    CPD1        C     1   0.14900000    209200.00
     CP2     CPD1     1   0.15270000    186188.00
     HB1     CPD1     1   0.10800000    276144.00
       N     CPD1     1   0.14340000    267776.00
     HE1     CC1A     1   0.11000000    301666.40
     HE1     CC1B     1   0.11000000    301666.40
     HE2      CC2     1   0.11000000    305432.00
    CC1A     CC1A     1   0.13400000    368192.00
    CC1B     CC1B     1   0.13400000    368192.00
    CC1A      CC2     1   0.13420000    418400.00
    CC1B      CC2     1   0.13420000    418400.00
    CC1A     CC1B     1   0.14700000    251040.00
    CC1B      CT3     1   0.15040000    320494.40
    CC1A      CT2     1   0.15020000    305432.00
    CC1A       CT     1   0.15020000    305432.00
    CC1A      CT3     1   0.15040000    320494.40
      CT      CT2     1   0.15380000    186188.00
      CA      NH1     1   0.14140000    255224.00
    CC1A       CD     1   0.14798000    251040.00
    CC1A       CC     1   0.14890000    368192.00
    CC1A        C     1   0.14890000    368192.00
     CT3      NS1     1   0.14400000    259408.00
     NS1     CC1B     1   0.12760000    418400.00
     HR1     CC1B     1   0.11000000    301666.40
     CT3      NS2     1   0.14530000    251040.00
     NS2     CC1B     1   0.12830000    393296.00
     NS2       HC     1   0.10000000    380744.00
     CT2      NS1     1   0.14400000    259408.00
     CT2      NS2     1   0.14530000    251040.00
  CC3162    OG301     1   0.14150000    301248.00
   CG331     NN2B     1   0.14560000    334720.00
   CG331      NN2     1   0.14560000    334720.00
    CN7B    OG301     1   0.14110000    279742.24
    CN7B    OC301     1   0.14110000    279742.24
    CN7B   NG2R61     1   0.14570000    184096.00
    CN7B   NG2R51     1   0.14570000    184096.00
  CG2R62     CN7B     1   0.14860000    292880.00
    CN7B    NG2S0     1   0.14340000    267776.00
  NG2R52     CN7B     1   0.14600000    267776.00
    CN7B    NG2P1     1   0.14530000    203342.40
      SL     CTL2     1   0.18070000    154808.00
     NTL      O2L     1   0.14000000    259408.00
     NTL      OHL     1   0.14000000    205016.00
     NHL     CTL2     1   0.14300000    267776.00
    CTL2    CC301     1   0.15000000    186188.00
    CTL2        S     1   0.18180000    165686.40
    CTL2       CC     1   0.15220000    167360.00
   CC301   CG2R61     1   0.14900000    192464.00
    CTL2      ON2     1   0.14300000    284512.00
       S       CL     1   0.18160000    200832.00
       S    CG321     1   0.18180000    165686.40
   CG321     CTL1     1   0.15380000    186188.00
    CTL1     CEL3     1   0.14900000    209200.00
    CTO1     CEL3     1   0.14900000    209200.00
    CTO1     CTL1     1   0.15000000    186188.00
    CTO1     CTL3     1   0.15380000    186188.00
    CEL3     CTL2     1   0.15020000    305432.00
    CEL3     CEL3     1   0.13400000    368192.00
    CTL2        C     1   0.14900000    209200.00
    CTL3        C     1   0.14900000    209200.00
    CTO1      OHL     1   0.14200000    358150.40
    CTO1      OSL     1   0.14300000    284512.00
    CTO1     HAL1     1   0.11110000    258571.20
    HEL1     CEL3     1   0.11000000    301666.40
     NHL        H     1   0.09970000    368192.00
     NHL     CTL3     1   0.14300000    267776.00
     NHL        C     1   0.13450000    309616.00
     NHL     CTL1     1   0.14300000    267776.00
    CTO2     HAL2     1   0.11110000    258571.20
    CTO2     CTL1     1   0.15380000    186188.00
    CTO2      OHL     1   0.14200000    358150.40
    CEL3     CTL3     1   0.15040000    320494.40
       C     CTL1     1   0.14900000    209200.00
    CN3C      HN6     1   0.10900000    312963.20
     CN3      HN6     1   0.10900000    292880.00
    CN1A      CN3     1   0.14800000    252713.60
    CN1A      NN1     1   0.13600000    468608.00
    CN1A      ON1     1   0.12300000    719648.00
    CN3A      CN3     1   0.13600000    376560.00
    CN3B      CN3     1   0.13500000    351456.00
    CN3C      CN3     1   0.13200000    351456.00
     CN3      CN8     1   0.14900000    186188.00
     CN3     HN3B     1   0.10900000    292880.00
    CN3A     HN3B     1   0.10900000    292880.00
    CN3B     HN3B     1   0.10900000    292880.00
    CN3C      HN3     1   0.10900000    312963.20
    CN3B      NN2     1   0.13150000    351456.00
    CN3C      NN2     1   0.13550000    351456.00
      OC       CD     1   0.12940000    263173.60
      C3       C3     1   0.15010000    200832.00
      C3      HB2     1   0.10830000    284512.00


[ constrainttypes ]
; this section is copied from OPLS. In theory we could recalculate
; optimal geometries from charmm values, but since pratical equilibrium
; geometries do not correspond exactly to these values anyway it is not
; worth the effort...
; no heavy hydrogens.
; constraints for the rigid NH3 groups
MNH3	 CT1   2	0.159603
MNH3	 CT2   2	0.159603
MNH3	 CT3   2	0.159603
MNH3	MNH3   2	0.082619
; constraints for rigid ch3
MCH3	 CT1   2	0.168122
MCH3	 CT2   2	0.167162
MCH3	 CT3   2	0.167354
MCH3	MCH3   2	0.093582
MCH3	   S   2	0.195314
; angle-derived constraints for OH and SH groups in proteins
; The constraint A-C is calculated from the angle A-B-C and bonds A-B, B-C.
CA		  H   2		0.193641
CD		  H   2		0.200439
CT1		  H   2		0.192081
CT2		  H   2		0.192081
CT3		  H   2		0.192081
CT2		 HS   2		0.234108
CT3		 HS   2		0.233942



[ angletypes ]
;      i        j        k  func       theta0       ktheta          ub0          kub
       H      NH2      CT1     5   111.000000   418.400000   0.00000000         0.00
       H      NH2      CT2     5   111.000000   418.400000   0.00000000         0.00
     NH2      CT1      CT1     5   110.000000   566.513600   0.00000000         0.00
     NH2      CT1      CT2     5   110.000000   566.513600   0.00000000         0.00
     NH2      CT1     CT2A     5   110.000000   566.513600   0.00000000         0.00
     NH2      CT1      CT3     5   110.000000   566.513600   0.00000000         0.00
     CT1       CD      OH1     5   110.500000   460.240000   0.00000000         0.00
     CT3      CT1       CD     5   108.000000   435.136000   0.00000000         0.00
     NH2      CT1      HB1     5   109.500000   317.984000   0.21400000     41840.00
     NH2      CT1        C     5   107.000000   418.400000   0.00000000         0.00
     NH2      CT1       CC     5   107.000000   418.400000   0.00000000         0.00
     NH2      CT1       CD     5   107.000000   418.400000   0.00000000         0.00
     NH2      CT2        C     5   107.000000   418.400000   0.00000000         0.00
     HB2      CT1      HB2     5   115.000000   301.248000   0.00000000         0.00
     HB2      CT1       CD     5   109.500000   418.400000   0.00000000         0.00
     NH1      CT1      HB2     5   108.000000   401.664000   0.00000000         0.00
     CAI      CAI       CA     5   120.000000   334.720000   0.24162000     29288.00
     CAI       CA       CA     5   120.000000   334.720000   0.24162000     29288.00
     CPT       CA       CA     5   113.200000   418.400000   0.00000000         0.00
     CPT      CPT       CA     5   110.000000   418.400000   0.00000000         0.00
     CPT      CAI       CA     5   113.200000   418.400000   0.00000000         0.00
     CPT      CPT      CAI     5   110.000000   418.400000   0.00000000         0.00
     CPT       CY       CA     5   106.400000   711.280000   0.22610000     20920.00
     CPT       NY       CA     5   112.000000   711.280000   0.00000000         0.00
     CT2       CY       CA     5   127.000000   251.040000   0.00000000         0.00
     CT2       CY      CPT     5   126.700000   251.040000   0.00000000         0.00
     CT3       CY       CA     5   127.000000   251.040000   0.00000000         0.00
     CT3       CY      CPT     5   126.700000   251.040000   0.00000000         0.00
      CY      CPT       CA     5   133.500000  1087.840000   0.00000000         0.00
      CY      CPT      CAI     5   133.500000  1087.840000   0.00000000         0.00
      CY      CPT      CPT     5   108.000000   711.280000   0.00000000         0.00
      CY      CT2      CT1     5   114.000000   488.272800   0.00000000         0.00
      CY      CT2      CT3     5   114.000000   488.272800   0.00000000         0.00
       H       NY       CA     5   126.000000   234.304000   0.00000000         0.00
       H       NY      CAI     5   126.000000   234.304000   0.00000000         0.00
       H       NY      CPT     5   126.000000   234.304000   0.00000000         0.00
     HA2      CT2       CY     5   109.500000   460.240000   0.00000000         0.00
     HA3      CT3       CY     5   109.500000   460.240000   0.00000000         0.00
      HP       CA      CAI     5   120.000000   251.040000   0.21525000     18409.60
      HP      CAI       CA     5   120.000000   251.040000   0.21525000     18409.60
      HP       CA      CPT     5   122.000000   251.040000   0.21460000     18409.60
      HP      CAI      CPT     5   122.000000   251.040000   0.21460000     18409.60
      HP       CA       CY     5   125.000000   267.776000   0.21730000     20920.00
      HP       CY       CA     5   126.400000   267.776000   0.21860000     20920.00
      HP       CY      CPT     5   126.400000   267.776000   0.22550000     20920.00
      NY       CA       CY     5   110.500000   711.280000   0.22400000     20920.00
      NY       CA       HP     5   125.000000   267.776000   0.21770000     20920.00
      NY      CPT       CA     5   129.500000  1087.840000   0.00000000         0.00
      NY      CPT      CAI     5   129.500000  1087.840000   0.00000000         0.00
      NY      CPT      CPT     5   107.400000   794.960000   0.00000000         0.00
      CA       CA       CA     5   120.000000   334.720000   0.24162000     29288.00
     CE1      CE1      CT2     5   123.500000   401.664000   0.00000000         0.00
     CE1      CE1      CT3     5   123.500000   401.664000   0.00000000         0.00
     CE1      CT2      CT3     5   112.200000   267.776000   0.00000000         0.00
     CE2      CE1      CT2     5   126.000000   401.664000   0.00000000         0.00
     CE2      CE1      CT3     5   125.200000   393.296000   0.00000000         0.00
     CP1        N        C     5   117.000000   502.080000   0.00000000         0.00
     CP2      CP1        C     5   112.300000   435.136000   0.00000000         0.00
     CP2      CP1       CC     5   112.300000   435.136000   0.00000000         0.00
     CP2      CP1       CD     5   112.300000   418.400000   0.00000000         0.00
     CP2      CP2      CP1     5   108.500000   585.760000   0.00000000         0.00
     CP3      CP2      CP2     5   108.500000   585.760000   0.00000000         0.00
     CP3        N        C     5   117.000000   502.080000   0.00000000         0.00
     CP3        N      CP1     5   114.200000   836.800000   0.00000000         0.00
     CP3       NP      CP1     5   111.000000   836.800000   0.00000000         0.00
    CPH2      NR1     CPH1     5   107.500000  1087.840000   0.00000000         0.00
    CPH2      NR2     CPH1     5   104.000000  1087.840000   0.00000000         0.00
    CPH2      NR3     CPH1     5   108.000000  1213.360000   0.00000000         0.00
     CT1      CT1        C     5   108.000000   435.136000   0.00000000         0.00
     CT1      CT1       CC     5   108.000000   435.136000   0.00000000         0.00
     CT1      CT1       CD     5   108.000000   435.136000   0.00000000         0.00
     CT1      CT1      CT1     5   111.000000   446.432800   0.25610000      6694.40
     CT1      CT2       CA     5   107.500000   433.462400   0.00000000         0.00
     CT1      CT2       CC     5   108.000000   435.136000   0.00000000         0.00
     CT1      CT2       CD     5   108.000000   435.136000   0.00000000         0.00
     CT1      CT2     CPH1     5   113.000000   488.272800   0.00000000         0.00
     CT1      CT2      CT1     5   113.500000   488.272800   0.25610000      9338.69
     CT1      NH1        C     5   120.000000   418.400000   0.00000000         0.00
     CT2       CA       CA     5   122.300000   383.254400   0.00000000         0.00
     CT2     CPH1     CPH1     5   130.000000   383.254400   0.00000000         0.00
     CT2      CT1        C     5   108.000000   435.136000   0.00000000         0.00
     CT2      CT1       CC     5   108.000000   435.136000   0.00000000         0.00
    CT2A      CT1       CC     5   108.000000   435.136000   0.00000000         0.00
     CT2      CT1       CD     5   108.000000   435.136000   0.00000000         0.00
     CT2      CT1      CT1     5   111.000000   446.432800   0.25610000      6694.40
     CT2      CT2        C     5   108.000000   435.136000   0.00000000         0.00
     CT2      CT2       CC     5   108.000000   435.136000   0.00000000         0.00
     CT3      CT2       CC     5   108.000000   435.136000   0.00000000         0.00
     CT2      CT2       CD     5   108.000000   435.136000   0.00000000         0.00
    CT2A      CT2       CD     5   108.000000   435.136000   0.00000000         0.00
     CT2      CT2      CT1     5   113.500000   488.272800   0.25610000      9338.69
     CT2      CT2      CT2     5   113.600000   488.272800   0.25610000      9338.69
     CT2      CT3      CT1     5   113.500000   488.272800   0.25610000      9338.69
     CT2      NC2        C     5   120.000000   521.326400   0.00000000         0.00
     CT2      NH1        C     5   120.000000   418.400000   0.00000000         0.00
     CT2       OS       CD     5   109.600000   334.720000   0.22651000     25104.00
     CT3       CA       CA     5   122.300000   383.254400   0.00000000         0.00
     CT3     CPH1     CPH1     5   130.000000   383.254400   0.00000000         0.00
     CT3      CT1        C     5   108.000000   435.136000   0.00000000         0.00
     CT3      CT1       CC     5   108.000000   435.136000   0.00000000         0.00
     CT3      CT1      CT1     5   108.500000   446.432800   0.25610000      6694.40
     CT3      CT1      CT2     5   114.000000   446.432800   0.25610000      6694.40
     CT3      CT1      CT3     5   114.000000   446.432800   0.25610000      6694.40
     CT3      CT2       CA     5   107.500000   433.462400   0.00000000         0.00
     CT3      CT2     CPH1     5   113.000000   488.272800   0.00000000         0.00
     CT3      CT2      CT1     5   113.500000   488.272800   0.25610000      9338.69
     CT3      CT2      CT2     5   115.000000   485.344000   0.25610000      6694.40
     CT3      CT2      CT3     5   114.000000   446.432800   0.25610000      6694.40
     CT3      NC2        C     5   120.000000   521.326400   0.00000000         0.00
     CT3      NH1        C     5   120.000000   418.400000   0.00000000         0.00
     CT3       OS       CD     5   109.600000   334.720000   0.22651000     25104.00
     CT3        S      CT2     5    95.000000   284.512000   0.00000000         0.00
       H      NH1        C     5   123.000000   284.512000   0.00000000         0.00
       H      NH1      CT1     5   117.000000   292.880000   0.00000000         0.00
       H      NH1      CT2     5   117.000000   292.880000   0.00000000         0.00
       H      NH1      CT3     5   117.000000   292.880000   0.00000000         0.00
       H      NH2       CC     5   120.000000   418.400000   0.00000000         0.00
       H      NH2        H     5   120.000000   192.464000   0.00000000         0.00
       H      NR1     CPH1     5   125.500000   251.040000   0.21500000     16736.00
       H      NR1     CPH2     5   127.000000   251.040000   0.21400000     16736.00
       H      NR3     CPH1     5   126.000000   209.200000   0.21300000     12552.00
       H      NR3     CPH2     5   126.000000   209.200000   0.20900000     12552.00
       H      OH1       CA     5   108.000000   543.920000   0.00000000         0.00
       H      OH1       CD     5   115.000000   460.240000   0.00000000         0.00
       H      OH1      CT1     5   106.000000   481.160000   0.00000000         0.00
       H      OH1      CT2     5   106.000000   481.160000   0.00000000         0.00
       H      OH1      CT3     5   106.000000   481.160000   0.00000000         0.00
     HA2      CP2      CP1     5   110.100000   279.742240   0.21790000     18853.10
     HA2      CP2      CP2     5   110.100000   221.752000   0.21790000     18853.10
     HA2      CP2      CP3     5   110.100000   221.752000   0.21790000     18853.10
     HA2      CP2      HA2     5   109.000000   297.064000   0.18020000      4518.72
     HA2      CP3      CP2     5   110.100000   221.752000   0.21790000     18853.10
     HA2      CP3      HA2     5   109.000000   297.064000   0.18020000      4518.72
     HA2       CS      CT3     5   110.100000   289.532800   0.21790000     18853.10
     HA2       CS      HA2     5   108.400000   297.064000   0.17750000     11715.20
     HA3       CS      HA3     5   108.400000   297.064000   0.17750000     11715.20
     HA1      CT1        C     5   109.500000   276.144000   0.21630000     25104.00
     HA1      CT1       CD     5   109.500000   276.144000   0.21630000     25104.00
     HA1      CT1      CT1     5   110.100000   288.696000   0.21790000     18853.10
     HA1      CT1      CT2     5   110.100000   288.696000   0.21790000     18853.10
     HA1      CT1      CT3     5   110.100000   288.696000   0.21790000     18853.10
     HA1      CT1      HA1     5   109.000000   297.064000   0.18020000      4518.72
     HA2      CT2        C     5   109.500000   276.144000   0.21630000     25104.00
     HA2      CT2       CA     5   107.500000   412.542400   0.00000000         0.00
     HA2      CT2       CC     5   109.500000   276.144000   0.21630000     25104.00
     HA2      CT2       CD     5   109.500000   276.144000   0.21630000     25104.00
     HA2      CT2      CE1     5   111.500000   376.560000   0.00000000         0.00
     HA2      CT2     CPH1     5   109.500000   279.742240   0.00000000         0.00
     HA2      CT2      CT1     5   110.100000   221.752000   0.21790000     18853.10
     HA2      CT2      CT2     5   110.100000   221.752000   0.21790000     18853.10
     HA2      CT2      CT3     5   110.100000   289.532800   0.21790000     18853.10
     HA2      CT2      HA2     5   109.000000   297.064000   0.18020000      4518.72
     HA3      CT3        C     5   109.500000   276.144000   0.21630000     25104.00
     HA3      CT3       CA     5   107.500000   412.542400   0.00000000         0.00
     HA3      CT3       CC     5   109.500000   276.144000   0.21630000     25104.00
     HA3      CT3       CD     5   109.500000   276.144000   0.21630000     25104.00
     HA3      CT3      CE1     5   111.500000   351.456000   0.00000000         0.00
     HA3      CT3     CPH1     5   109.500000   279.742240   0.00000000         0.00
     HA3      CT3       CS     5   110.100000   289.532800   0.21790000     18853.10
     HA3      CT3      CT1     5   110.100000   279.742240   0.21790000     18853.10
     HA3      CT3      CT2     5   110.100000   289.532800   0.21790000     18853.10
     HA3      CT3      CT3     5   110.100000   313.800000   0.21790000     18853.10
     HA3      CT3      HA3     5   108.400000   297.064000   0.18020000      4518.72
     HE1      CE1      CE1     5   119.500000   435.136000   0.00000000         0.00
     HE1      CE1      CE2     5   118.000000   351.456000   0.00000000         0.00
     HE1      CE1      CT2     5   116.000000   334.720000   0.00000000         0.00
     HE1      CE1      CT3     5   117.000000   184.096000   0.00000000         0.00
     HE2      CE2      CE1     5   120.500000   376.560000   0.00000000         0.00
     HE2      CE2      CE2     5   120.500000   464.424000   0.00000000         0.00
     HE2      CE2      HE2     5   119.000000   158.992000   0.00000000         0.00
     HB1      CP1        C     5   112.000000   418.400000   0.00000000         0.00
     HB1      CP1       CC     5   112.000000   418.400000   0.00000000         0.00
     HB1      CP1       CD     5   112.000000   418.400000   0.00000000         0.00
     HB1      CP1      CP2     5   118.000000   292.880000   0.00000000         0.00
     HB1      CT1        C     5   109.500000   418.400000   0.00000000         0.00
     HB1      CT1       CC     5   109.500000   418.400000   0.00000000         0.00
     HB1      CT1       CD     5   109.500000   418.400000   0.00000000         0.00
     HB1      CT1      CT1     5   111.000000   292.880000   0.00000000         0.00
     HB1      CT1      CT2     5   111.000000   292.880000   0.00000000         0.00
     HB1      CT1      CT3     5   111.000000   292.880000   0.00000000         0.00
     HB2      CT2        C     5   109.500000   418.400000   0.00000000         0.00
     HB2      CT2       CC     5   109.500000   418.400000   0.00000000         0.00
     HB2      CT2       CD     5   109.500000   418.400000   0.00000000         0.00
     HB2      CT2      HB2     5   115.000000   301.248000   0.00000000         0.00
      HC      NC2        C     5   120.000000   410.032000   0.00000000         0.00
      HC      NC2      CT2     5   120.000000   338.067200   0.00000000         0.00
      HC      NC2      CT3     5   120.000000   338.067200   0.00000000         0.00
      HC      NC2       HC     5   120.000000   209.200000   0.00000000         0.00
      HC      NH2      CT2     5   111.000000   418.400000   0.00000000         0.00
      HC      NH2      CT3     5   111.000000   418.400000   0.00000000         0.00
      HC      NH2       HC     5   106.500000   326.352000   0.00000000         0.00
      HC      NH3      CT1     5   109.500000   251.040000   0.20740000     16736.00
      HC      NH3      CT2     5   109.500000   251.040000   0.20740000     16736.00
      HC      NH3      CT3     5   109.500000   251.040000   0.20740000     16736.00
      HC      NH3       HC     5   109.500000   368.192000   0.00000000         0.00
      HC       NP      CP1     5   109.500000   276.144000   0.20560000      3347.20
      HC       NP      CP3     5   109.500000   276.144000   0.20560000      3347.20
      HC       NP       HC     5   107.500000   426.768000   0.00000000         0.00
      HP       CA       CA     5   120.000000   251.040000   0.21525000     18409.60
     HR1     CPH1     CPH1     5   130.000000   184.096000   0.22150000     12552.00
     HR3     CPH1     CPH1     5   130.000000   209.200000   0.22000000     16736.00
      HS        S      CT2     5    95.000000   324.678400   0.00000000         0.00
      HS        S      CT3     5    95.000000   359.824000   0.00000000         0.00
       N        C      CP1     5   112.500000   167.360000   0.00000000         0.00
       N        C      CT1     5   112.500000   167.360000   0.00000000         0.00
       N        C      CT2     5   112.500000   167.360000   0.00000000         0.00
       N        C      CT3     5   112.500000   167.360000   0.00000000         0.00
       N      CP1        C     5   108.200000   418.400000   0.00000000         0.00
       N      CP1       CC     5   108.200000   418.400000   0.00000000         0.00
       N      CP1       CD     5   108.200000   418.400000   0.00000000         0.00
       N      CP1      CP2     5   110.800000   585.760000   0.00000000         0.00
       N      CP1      HB1     5   112.000000   401.664000   0.00000000         0.00
       N      CP3      CP2     5   110.500000   585.760000   0.00000000         0.00
       N      CP3      HA2     5   108.000000   401.664000   0.00000000         0.00
     NC2        C      NC2     5   120.000000   334.720000   0.23100000     58576.00
     NC2      CT2      CT2     5   107.500000   566.513600   0.00000000         0.00
     NC2      CT2      HA2     5   107.500000   472.792000   0.00000000         0.00
     NC2      CT3      HA3     5   107.500000   472.792000   0.00000000         0.00
     NH1        C      CP1     5   116.500000   669.440000   0.00000000         0.00
     NH1        C      CT1     5   116.500000   669.440000   0.00000000         0.00
     NH1        C      CT2     5   116.500000   669.440000   0.00000000         0.00
     NH1        C      CT3     5   116.500000   669.440000   0.00000000         0.00
     NH1      CT1        C     5   107.000000   418.400000   0.00000000         0.00
     NH1      CT1       CC     5   107.000000   418.400000   0.00000000         0.00
     NH1      CT1       CD     5   107.000000   418.400000   0.00000000         0.00
     NH1      CT1      CT1     5   113.500000   585.760000   0.00000000         0.00
     NH1      CT1      CT2     5   113.500000   585.760000   0.00000000         0.00
     NH1      CT1      CT3     5   113.500000   585.760000   0.00000000         0.00
     NH1      CT1      HB1     5   108.000000   401.664000   0.00000000         0.00
     NH1      CT2        C     5   107.000000   418.400000   0.00000000         0.00
     NH1      CT2       CC     5   107.000000   418.400000   0.00000000         0.00
     NH1      CT2       CD     5   107.000000   418.400000   0.00000000         0.00
     NH1      CT2      CT2     5   113.500000   585.760000   0.00000000         0.00
     NH1      CT2      HA2     5   109.500000   430.952000   0.00000000         0.00
     NH1      CT2      HB2     5   108.000000   401.664000   0.00000000         0.00
     NH1      CT3      HA3     5   109.500000   430.952000   0.00000000         0.00
     NH2       CC      CP1     5   112.500000   669.440000   0.00000000         0.00
     NH2       CC      CT1     5   116.500000   418.400000   0.24500000     41840.00
     NH2       CC      CT2     5   116.500000   418.400000   0.24500000     41840.00
     NH2       CC      CT3     5   116.500000   418.400000   0.24500000     41840.00
     NH2       CC      HA1     5   111.000000   368.192000   0.19800000     41840.00
     NH2      CT2      HB2     5   109.500000   317.984000   0.21400000     41840.00
     NH2      CT2       CD     5   108.000000   435.136000   0.00000000         0.00
     NH2      CT2      CT2     5   110.000000   566.513600   0.00000000         0.00
     NH2      CT2      HA2     5   109.500000   317.984000   0.21400000     41840.00
     NH2      CT3      HA3     5   109.500000   317.984000   0.21400000     41840.00
     NH3      CT1        C     5   110.000000   365.681600   0.00000000         0.00
     NH3      CT1       CC     5   110.000000   365.681600   0.00000000         0.00
     NH3      CT1      CT1     5   110.000000   566.513600   0.00000000         0.00
     NH3      CT1      CT2     5   110.000000   566.513600   0.00000000         0.00
     NH3      CT1      CT3     5   110.000000   566.513600   0.00000000         0.00
     NH3      CT1      HB1     5   107.500000   430.952000   0.00000000         0.00
     NH3      CT2        C     5   110.000000   365.681600   0.00000000         0.00
     NH3      CT2       CC     5   110.000000   365.681600   0.00000000         0.00
     NH3      CT2       CD     5   110.000000   365.681600   0.00000000         0.00
     NH3      CT2      CT2     5   110.000000   566.513600   0.00000000         0.00
     NH3      CT2      CT3     5   110.000000   566.513600   0.00000000         0.00
     NH3      CT2      HA2     5   107.500000   376.560000   0.21010000     29288.00
     NH3      CT2      HB2     5   107.500000   430.952000   0.00000000         0.00
     NH3      CT3      HA3     5   107.500000   376.560000   0.21010000     29288.00
      NP      CP1        C     5   106.000000   418.400000   0.00000000         0.00
      NP      CP1       CC     5   106.000000   418.400000   0.00000000         0.00
      NP      CP1       CD     5   106.000000   418.400000   0.00000000         0.00
      NP      CP1      CP2     5   108.500000   585.760000   0.00000000         0.00
      NP      CP1      HB1     5   107.500000   430.952000   0.00000000         0.00
      NP      CP3      CP2     5   108.500000   585.760000   0.00000000         0.00
      NP      CP3      HA2     5   109.150000   430.952000   0.00000000         0.00
     NR1     CPH1     CPH1     5   106.000000  1087.840000   0.00000000         0.00
     NR1     CPH1      CT2     5   124.000000   383.254400   0.00000000         0.00
     NR1     CPH1      CT3     5   124.000000   383.254400   0.00000000         0.00
     NR1     CPH1      HR3     5   124.000000   209.200000   0.21400000     16736.00
     NR1     CPH2      HR1     5   122.500000   209.200000   0.21400000     16736.00
     NR2     CPH1     CPH1     5   110.000000  1087.840000   0.00000000         0.00
     NR2     CPH1      CT2     5   120.000000   383.254400   0.00000000         0.00
     NR2     CPH1      HR3     5   120.000000   209.200000   0.21400000     16736.00
     NR2     CPH2      HR1     5   125.000000   209.200000   0.21200000     16736.00
     NR2     CPH2      NR1     5   112.500000  1087.840000   0.00000000         0.00
     NR3     CPH1     CPH1     5   108.000000  1213.360000   0.00000000         0.00
     NR3     CPH1      CT2     5   122.000000   383.254400   0.00000000         0.00
     NR3     CPH1      HR1     5   122.000000   184.096000   0.21800000     12552.00
     NR3     CPH2      HR2     5   126.000000   267.776000   0.21400000     20920.00
     NR3     CPH2      NR3     5   108.000000  1213.360000   0.00000000         0.00
       O        C      CP1     5   118.000000   669.440000   0.00000000         0.00
       O        C      CT1     5   121.000000   669.440000   0.00000000         0.00
       O        C      CT2     5   121.000000   669.440000   0.00000000         0.00
       O        C      CT3     5   121.000000   669.440000   0.00000000         0.00
       O        C        H     5   121.700000   418.400000   0.00000000         0.00
       O        C        N     5   122.500000   669.440000   0.00000000         0.00
       O        C      NH1     5   122.500000   669.440000   0.00000000         0.00
       O       CC      CP1     5   118.000000   669.440000   0.00000000         0.00
       O       CC      CT1     5   121.000000   125.520000   0.24400000     41840.00
       O       CC      CT2     5   121.000000   125.520000   0.24400000     41840.00
       O       CC      CT3     5   121.000000   125.520000   0.24400000     41840.00
       O       CC      HA1     5   122.000000   368.192000   0.00000000         0.00
       O       CC      NH2     5   122.500000   627.600000   0.23700000     41840.00
      OB       CD      CP1     5   125.000000   585.760000   0.24420000     16736.00
      OB       CD      CT1     5   125.000000   585.760000   0.24420000     16736.00
      OB       CD      CT2     5   125.000000   585.760000   0.24420000     16736.00
      OB       CD      CT3     5   125.000000   585.760000   0.24420000     16736.00
      OC       CA       CA     5   120.000000   334.720000   0.00000000         0.00
      OC       CC      CP1     5   118.000000   334.720000   0.23880000     41840.00
      OC       CC      CT1     5   118.000000   334.720000   0.23880000     41840.00
      OC       CC      CT2     5   118.000000   334.720000   0.23880000     41840.00
      OC       CC      CT3     5   118.000000   334.720000   0.23880000     41840.00
      OC       CC       OC     5   124.000000   836.800000   0.22250000     58576.00
      OC      CT2      CT3     5   122.000000   543.920000   0.00000000         0.00
      OC      CT2      HA2     5   118.300000   543.920000   0.00000000         0.00
      OC      CT3      HA3     5   118.300000   543.920000   0.00000000         0.00
     OH1       CA       CA     5   120.000000   378.233600   0.00000000         0.00
     OH1       CD      CT2     5   110.500000   460.240000   0.00000000         0.00
     OH1       CD      CT3     5   110.500000   460.240000   0.00000000         0.00
     OH1       CD       OB     5   123.000000   418.400000   0.22620000    175728.00
     OH1      CT1      CT1     5   110.100000   633.457600   0.00000000         0.00
     OH1      CT1      CT3     5   110.100000   633.457600   0.00000000         0.00
     OH1      CT1      HA1     5   108.890000   384.091200   0.00000000         0.00
     OH1      CT2      CT1     5   110.100000   633.457600   0.00000000         0.00
     OH1      CT2      CT2     5   110.100000   633.457600   0.00000000         0.00
     OH1      CT2      CT3     5   110.100000   633.457600   0.00000000         0.00
     OH1      CT2      HA2     5   108.890000   384.091200   0.00000000         0.00
     OH1      CT3      HA3     5   108.890000   384.091200   0.00000000         0.00
      OS       CD      CP1     5   109.000000   460.240000   0.23260000     16736.00
      OS       CD      CT1     5   109.000000   460.240000   0.23260000     16736.00
      OS       CD      CT2     5   109.000000   460.240000   0.23260000     16736.00
      OS       CD      CT3     5   109.000000   460.240000   0.23260000     16736.00
      OS       CD       OB     5   125.900000   753.120000   0.22576000    133888.00
      OS      CT2      HA2     5   109.500000   502.080000   0.00000000         0.00
      OS      CT3      HA3     5   109.500000   502.080000   0.00000000         0.00
       S      CT2      CT1     5   112.500000   485.344000   0.00000000         0.00
       S      CT2      CT2     5   114.500000   485.344000   0.00000000         0.00
       S      CT2      CT3     5   114.500000   485.344000   0.00000000         0.00
       S      CT2      HA2     5   111.300000   385.764800   0.00000000         0.00
       S      CT3      HA3     5   111.300000   385.764800   0.00000000         0.00
      SM      CT2      CT1     5   112.500000   485.344000   0.00000000         0.00
      SM      CT2      CT3     5   112.500000   485.344000   0.00000000         0.00
      SM      CT2      HA2     5   111.000000   317.984000   0.00000000         0.00
      SM      CT3      HA3     5   111.000000   317.984000   0.00000000         0.00
      SM       SM      CT2     5   103.300000   606.680000   0.00000000         0.00
      SM       SM      CT3     5   103.300000   606.680000   0.00000000         0.00
      SS       CS      CT3     5   118.000000   460.240000   0.00000000         0.00
      SS       CS      HA2     5   112.300000   334.720000   0.00000000         0.00
      SS       CS      HA3     5   112.300000   334.720000   0.00000000         0.00
       O       CD      HR1     5   121.000000   627.600000   0.00000000         0.00
     NH1      CT1     CT2A     5   113.500000   585.760000   0.00000000         0.00
     HB1      CT1     CT2A     5   111.000000   292.880000   0.00000000         0.00
    CT2A      CT1        C     5   108.000000   435.136000   0.00000000         0.00
     CT1     CT2A      HA2     5   110.100000   221.752000   0.21790000     18853.10
     CT1     CT2A      CT2     5   113.500000   488.272800   0.25610000      9338.69
     HA2     CT2A      HA2     5   109.000000   297.064000   0.18020000      4518.72
     HA2     CT2A      CT2     5   110.100000   221.752000   0.21790000     18853.10
    CT2A      CT2      HA2     5   110.100000   221.752000   0.21790000     18853.10
    CT2A      CT2       CC     5   108.000000   435.136000   0.00000000         0.00
     CT1     CT2A     CPH1     5   113.000000   488.272800   0.00000000         0.00
     HA2     CT2A     CPH1     5   109.500000   279.742240   0.00000000         0.00
    CT2A     CPH1     CPH1     5   130.000000   383.254400   0.00000000         0.00
    CT2A     CPH1      NR3     5   122.000000   383.254400   0.00000000         0.00
     CT1     CT2A       CC     5   108.000000   435.136000   0.00000000         0.00
     HA2     CT2A       CC     5   109.500000   276.144000   0.21630000     25104.00
      OC       CC     CT2A     5   118.000000   334.720000   0.23880000     41840.00
     NH3      CT1     CT2A     5   110.000000   566.513600   0.00000000         0.00
    CT2A      CT1       CD     5   108.000000   435.136000   0.00000000         0.00
     NH2      CT1       CS     5   110.000000   566.513600   0.00000000         0.00
      CS      CT1        C     5   108.000000   435.136000   0.00000000         0.00
      CS      CT1       CC     5   108.000000   435.136000   0.00000000         0.00
      CS      CT1       CD     5   108.000000   435.136000   0.00000000         0.00
     HB1      CT1       CS     5   111.000000   292.880000   0.00000000         0.00
     NH1      CT1       CS     5   113.500000   585.760000   0.00000000         0.00
     NH3      CT1       CS     5   110.000000   566.513600   0.00000000         0.00
      SS       CS      CT1     5   118.000000   460.240000   0.00000000         0.00
     HA2       CS      CT1     5   110.100000   289.532800   0.21790000     18853.10
      OC      CT2      CT1     5   122.000000   543.920000   0.00000000         0.00
  CG2DC1    CG1N1    NG1T1     5   180.000000   136.900480   0.00000000         0.00
  CG2DC2    CG1N1    NG1T1     5   180.000000   136.900480   0.00000000         0.00
  CG2R51    CG1N1    NG1T1     5   180.000000   334.720000   0.00000000         0.00
  CG2R61    CG1N1    NG1T1     5   180.000000   334.720000   0.00000000         0.00
   CG301    CG1N1    NG1T1     5   180.000000   177.401600   0.00000000         0.00
   CG321    CG1N1    NG1T1     5   180.000000   177.401600   0.00000000         0.00
   CG331    CG1N1    NG1T1     5   180.000000   177.401600   0.00000000         0.00
   NG1T1    CG1N1    NG301     5   180.000000   260.914240   0.00000000         0.00
   NG1T1    CG1N1    NG311     5   180.000000   227.944320   0.00000000         0.00
   NG1T1    CG1N1    SG311     5   179.930000   340.577600   0.00000000         0.00
   CG1T1    CG1T1    CG331     5   180.000000   158.992000   0.00000000         0.00
   CG1T2    CG1T1    CG2D1     5   180.000000    92.048000   0.00000000         0.00
   CG1T2    CG1T1    CG301     5   180.000000    92.048000   0.00000000         0.00
   CG1T2    CG1T1    CG311     5   180.000000    92.048000   0.00000000         0.00
   CG1T2    CG1T1    CG321     5   180.000000    92.048000   0.00000000         0.00
   CG1T2    CG1T1    CG331     5   180.000000    92.048000   0.00000000         0.00
   CG1T1    CG1T2   HGPAM1     5   180.000000    66.944000   0.00000000         0.00
  CG251O   CG251O   CG2R53     5   125.000000   334.720000   0.00000000         0.00
  CG251O   CG251O   CG3C52     5   122.747600   264.177760   0.00000000         0.00
  CG251O   CG251O   NG2R50     5   126.854700   287.022400   0.00000000         0.00
  CG251O   CG251O   NG3C51     5   120.093800   562.999040   0.00000000         0.00
  CG25C1   CG251O   CG2R53     5   125.000000   334.720000   0.00000000         0.00
  CG25C1   CG251O   NG2R53     5   124.000000   334.720000   0.00000000         0.00
  CG25C1   CG251O    SG311     5   124.000000   334.720000   0.00000000         0.00
  CG2D1O   CG251O   CG2R53     5   119.000000   334.720000   0.00000000         0.00
  CG2D1O   CG251O    SG311     5   130.000000   334.720000   0.00000000         0.00
   CG2D2   CG251O   CG3C52     5   127.791900   340.828640   0.00000000         0.00
   CG2D2   CG251O   NG2R51     5   130.000000   334.720000   0.00000000         0.00
   CG2D2   CG251O   NG3C51     5   131.983800   453.545600   0.00000000         0.00
   CG2D2   CG251O   SG2R50     5   130.361500   391.204000   0.00000000         0.00
  CG2DC1   CG251O   CG2R53     5   119.000000   334.720000   0.00000000         0.00
  CG2DC1   CG251O   NG2R50     5   122.220000   360.326080   0.00000000         0.00
  CG2DC1   CG251O   NG2R53     5   130.000000   334.720000   0.00000000         0.00
  CG2DC1   CG251O   OG3C51     5   126.702700   410.199360   0.00000000         0.00
  CG2DC1   CG251O    SG311     5   130.000000   334.720000   0.00000000         0.00
  CG2DC3   CG251O   CG2R53     5   119.000000   334.720000   0.00000000         0.00
  CG2DC3   CG251O   CG2RC0     5   119.000000   334.720000   0.00000000         0.00
  CG2DC3   CG251O   NG2R50     5   133.180000   335.724160   0.00000000         0.00
  CG2DC3   CG251O   NG2R53     5   130.000000   334.720000   0.00000000         0.00
  CG2DC3   CG251O   OG3C51     5   112.255400   427.186400   0.00000000         0.00
  CG2DC3   CG251O    SG311     5   130.000000   334.720000   0.00000000         0.00
  CG2R53   CG251O   CG2R61     5    97.217400   318.653440   0.00000000         0.00
  CG2R53   CG251O   NG2R50     5   110.350000   987.591360   0.00000000         0.00
  CG2R53   CG251O   NG2R53     5   111.000000   970.688000   0.00000000         0.00
  CG2R53   CG251O    SG311     5   111.000000   920.480000   0.00000000         0.00
  CG2R61   CG251O    SG311     5   111.725000   296.896640   0.00000000         0.00
  CG2RC0   CG251O   OG3C51     5    99.700800   673.121920   0.00000000         0.00
  CG3C52   CG251O   NG3C51     5   104.566600   746.927680   0.00000000         0.00
  NG2R51   CG251O   SG2R50     5   102.487100   484.841920   0.00000000         0.00
  NG2R53   CG251O   OG3C51     5   112.435800   406.433760   0.00000000         0.00
  CG252O   CG252O   CG2R53     5   125.000000   334.720000   0.00000000         0.00
  CG252O   CG252O   CG3C52     5   122.747600   264.177760   0.00000000         0.00
  CG252O   CG252O   NG2R50     5   126.854700   287.022400   0.00000000         0.00
  CG252O   CG252O   NG3C51     5   120.093800   562.999040   0.00000000         0.00
  CG25C2   CG252O   CG2R53     5   125.000000   334.720000   0.00000000         0.00
  CG25C2   CG252O   NG2R53     5   124.000000   334.720000   0.00000000         0.00
  CG25C2   CG252O    SG311     5   124.000000   334.720000   0.00000000         0.00
   CG2D2   CG252O   CG3C52     5   127.791900   340.828640   0.00000000         0.00
   CG2D2   CG252O   NG2R51     5   130.000000   334.720000   0.00000000         0.00
   CG2D2   CG252O   NG3C51     5   131.983800   453.545600   0.00000000         0.00
   CG2D2   CG252O   SG2R50     5   130.361500   391.204000   0.00000000         0.00
  CG2D2O   CG252O   CG2R53     5   119.000000   334.720000   0.00000000         0.00
  CG2D2O   CG252O    SG311     5   130.000000   334.720000   0.00000000         0.00
  CG2DC2   CG252O   CG2R53     5   119.000000   334.720000   0.00000000         0.00
  CG2DC2   CG252O   NG2R50     5   122.220000   360.326080   0.00000000         0.00
  CG2DC2   CG252O   NG2R53     5   130.000000   334.720000   0.00000000         0.00
  CG2DC2   CG252O   OG3C51     5   126.702700   410.199360   0.00000000         0.00
  CG2DC2   CG252O    SG311     5   130.000000   334.720000   0.00000000         0.00
  CG2DC3   CG252O   CG2R53     5   119.000000   334.720000   0.00000000         0.00
  CG2DC3   CG252O   CG2RC0     5   119.000000   334.720000   0.00000000         0.00
  CG2DC3   CG252O   NG2R50     5   133.180000   335.724160   0.00000000         0.00
  CG2DC3   CG252O   NG2R53     5   130.000000   334.720000   0.00000000         0.00
  CG2DC3   CG252O   OG3C51     5   112.255400   427.186400   0.00000000         0.00
  CG2DC3   CG252O    SG311     5   130.000000   334.720000   0.00000000         0.00
  CG2R53   CG252O   CG2R61     5    97.217400   318.653440   0.00000000         0.00
  CG2R53   CG252O   NG2R50     5   110.350000   987.591360   0.00000000         0.00
  CG2R53   CG252O   NG2R53     5   111.000000   970.688000   0.00000000         0.00
  CG2R53   CG252O    SG311     5   111.000000   920.480000   0.00000000         0.00
  CG2R61   CG252O    SG311     5   111.725000   296.896640   0.00000000         0.00
  CG2RC0   CG252O   OG3C51     5    99.700800   673.121920   0.00000000         0.00
  CG3C52   CG252O   NG3C51     5   104.566600   746.927680   0.00000000         0.00
  NG2R51   CG252O   SG2R50     5   102.487100   484.841920   0.00000000         0.00
  NG2R53   CG252O   OG3C51     5   112.435800   406.433760   0.00000000         0.00
  CG251O   CG25C1   CG2R53     5   113.000000   276.144000   0.00000000         0.00
  CG251O   CG25C1   CG2RC0     5   131.500000   276.144000   0.00000000         0.00
  CG251O   CG25C1   CG3C52     5   122.216200   306.101440   0.00000000         0.00
  CG25C2   CG25C1   CG2RC0     5   114.500000   376.560000   0.00000000         0.00
  CG25C2   CG25C1    NG2D1     5   116.881500   435.136000   0.00000000         0.00
  CG2D1O   CG25C1   CG2R53     5   115.500000   276.144000   0.00000000         0.00
  CG2D1O   CG25C1   CG2RC0     5   130.000000   276.144000   0.00000000         0.00
  CG2D1O   CG25C1   CG3C52     5   133.559600   160.498240   0.00000000         0.00
  CG2D1O   CG25C1   CG3RC1     5   124.161200   269.114880   0.00000000         0.00
  CG2DC1   CG25C1   CG2R53     5   115.500000   276.144000   0.00000000         0.00
  CG2DC1   CG25C1   CG2RC0     5   130.000000   276.144000   0.00000000         0.00
  CG2DC1   CG25C1   CG3C52     5   121.062300   338.485600   0.00000000         0.00
  CG2DC3   CG25C1   CG2R53     5   115.500000   276.144000   0.00000000         0.00
  CG2DC3   CG25C1   CG2RC0     5   130.000000   276.144000   0.00000000         0.00
  CG2R52   CG25C1   CG3C50     5   101.801800   676.050720   0.00000000         0.00
  CG2R52   CG25C1    OG2D3     5   130.232800   415.638560   0.00000000         0.00
  CG2R53   CG25C1   CG2RC0     5   114.500000   376.560000   0.00000000         0.00
  CG2R53   CG25C1   CG3C52     5   114.515300   845.168000   0.00000000         0.00
  CG2R53   CG25C1   CG3RC1     5   114.244400   634.963840   0.00000000         0.00
  CG2RC0   CG25C1    NG2D1     5   104.737400   396.308480   0.00000000         0.00
  CG3C50   CG25C1    OG2D3     5   129.381900   415.136480   0.00000000         0.00
  CG3C52   CG25C1   CG3C52     5   111.480800   608.269920   0.00000000         0.00
  CG3C52   CG25C1    NG2D1     5   110.970100   324.427360   0.00000000         0.00
  CG252O   CG25C2   CG2R53     5   113.000000   276.144000   0.00000000         0.00
  CG252O   CG25C2   CG2RC0     5   131.500000   276.144000   0.00000000         0.00
  CG252O   CG25C2   CG3C52     5   122.216200   306.101440   0.00000000         0.00
  CG25C1   CG25C2   CG2RC0     5   114.500000   376.560000   0.00000000         0.00
  CG25C1   CG25C2    NG2D1     5   116.881500   435.136000   0.00000000         0.00
  CG2D2O   CG25C2   CG2R53     5   115.500000   276.144000   0.00000000         0.00
  CG2D2O   CG25C2   CG2RC0     5   130.000000   276.144000   0.00000000         0.00
  CG2D2O   CG25C2   CG3C52     5   133.559600   160.498240   0.00000000         0.00
  CG2D2O   CG25C2   CG3RC1     5   124.161200   269.114880   0.00000000         0.00
  CG2DC2   CG25C2   CG2R53     5   115.500000   276.144000   0.00000000         0.00
  CG2DC2   CG25C2   CG2RC0     5   130.000000   276.144000   0.00000000         0.00
  CG2DC2   CG25C2   CG3C52     5   121.062300   338.485600   0.00000000         0.00
  CG2DC3   CG25C2   CG2R53     5   115.500000   276.144000   0.00000000         0.00
  CG2DC3   CG25C2   CG2RC0     5   130.000000   276.144000   0.00000000         0.00
  CG2R52   CG25C2   CG3C50     5   101.801800   676.050720   0.00000000         0.00
  CG2R52   CG25C2    OG2D3     5   130.232800   415.638560   0.00000000         0.00
  CG2R53   CG25C2   CG2RC0     5   114.500000   376.560000   0.00000000         0.00
  CG2R53   CG25C2   CG3C52     5   114.515300   845.168000   0.00000000         0.00
  CG2R53   CG25C2   CG3RC1     5   114.244400   634.963840   0.00000000         0.00
  CG2RC0   CG25C2    NG2D1     5   104.737400   396.308480   0.00000000         0.00
  CG3C50   CG25C2    OG2D3     5   129.381900   415.136480   0.00000000         0.00
  CG3C52   CG25C2   CG3C52     5   111.480800   608.269920   0.00000000         0.00
  CG3C52   CG25C2    NG2D1     5   110.970100   324.427360   0.00000000         0.00
   CG1T1    CG2D1    CG2D2     5   126.000000   401.664000   0.00000000         0.00
   CG1T1    CG2D1     HGA4     5   116.000000   334.720000   0.00000000         0.00
   CG2D1    CG2D1    CG301     5   123.500000   401.664000   0.00000000         0.00
   CG2D1    CG2D1    CG311     5   123.500000   401.664000   0.00000000         0.00
   CG2D1    CG2D1    CG314     5   121.960000   353.464320   0.00000000         0.00
   CG2D1    CG2D1    CG321     5   123.500000   401.664000   0.00000000         0.00
   CG2D1    CG2D1    CG324     5   122.500000   326.352000   0.00000000         0.00
   CG2D1    CG2D1    CG331     5   123.500000   401.664000   0.00000000         0.00
   CG2D1    CG2D1   CG3C31     5   123.500000   401.664000   0.00000000         0.00
   CG2D1    CG2D1   CG3C50     5   114.635600   313.465280   0.00000000         0.00
   CG2D1    CG2D1   CG3C51     5   117.499100   278.654400   0.00000000         0.00
   CG2D1    CG2D1   CG3C52     5   117.376700   460.072640   0.00000000         0.00
   CG2D1    CG2D1   CG3RC1     5   113.054700   384.676960   0.00000000         0.00
   CG2D1    CG2D1     FGA1     5   122.974500   588.437760   0.00000000         0.00
   CG2D1    CG2D1     HGA4     5   119.500000   435.136000   0.00000000         0.00
  CG2D1O    CG2D1    CG301     5   127.500000   334.720000   0.00000000         0.00
  CG2D1O    CG2D1    CG311     5   127.500000   334.720000   0.00000000         0.00
  CG2D1O    CG2D1    CG321     5   127.500000   334.720000   0.00000000         0.00
  CG2D1O    CG2D1    CG331     5   127.500000   334.720000   0.00000000         0.00
  CG2D1O    CG2D1     HGA4     5   119.500000   435.136000   0.00000000         0.00
   CG2D2    CG2D1    CG311     5   126.000000   401.664000   0.00000000         0.00
   CG2D2    CG2D1    CG321     5   126.000000   401.664000   0.00000000         0.00
   CG2D2    CG2D1    CG331     5   125.200000   393.296000   0.00000000         0.00
   CG2D2    CG2D1     HGA4     5   118.000000   351.456000   0.00000000         0.00
  CG2D2O    CG2D1    CG301     5   127.500000   334.720000   0.00000000         0.00
  CG2D2O    CG2D1    CG311     5   127.500000   334.720000   0.00000000         0.00
  CG2D2O    CG2D1    CG321     5   127.500000   334.720000   0.00000000         0.00
  CG2D2O    CG2D1    CG331     5   127.500000   334.720000   0.00000000         0.00
  CG2D2O    CG2D1     HGA4     5   119.500000   435.136000   0.00000000         0.00
   CG301    CG2D1    CG321     5   113.000000   418.400000   0.00000000         0.00
   CG301    CG2D1    CG331     5   123.500000   401.664000   0.00000000         0.00
   CG301    CG2D1    NG2D1     5   123.000000   669.440000   0.00000000         0.00
   CG301    CG2D1     HGA4     5   116.000000   334.720000   0.00000000         0.00
   CG311    CG2D1    CG311     5   113.000000   418.400000   0.00000000         0.00
   CG311    CG2D1    CG321     5   113.000000   418.400000   0.00000000         0.00
   CG311    CG2D1    CG331     5   123.500000   401.664000   0.00000000         0.00
   CG311    CG2D1    NG2D1     5   123.000000   669.440000   0.00000000         0.00
   CG311    CG2D1     FGA1     5   115.696300   592.036000   0.00000000         0.00
   CG311    CG2D1     HGA4     5   116.000000   334.720000   0.00000000         0.00
   CG314    CG2D1     HGA4     5   115.830000   295.892480   0.00000000         0.00
   CG321    CG2D1    CG321     5   123.500000   401.664000   0.00000000         0.00
   CG321    CG2D1    CG331     5   123.500000   401.664000   0.00000000         0.00
   CG321    CG2D1    NG2D1     5   123.000000   669.440000   0.00000000         0.00
   CG321    CG2D1     HGA4     5   116.000000   334.720000   0.00000000         0.00
   CG324    CG2D1    CG331     5   114.760000   361.246560   0.00000000         0.00
   CG324    CG2D1     HGA4     5   118.000000   309.616000   0.00000000         0.00
   CG331    CG2D1    CG331     5   119.000000   460.240000   0.00000000         0.00
   CG331    CG2D1   CG3RC1     5   133.130200   264.345120   0.00000000         0.00
   CG331    CG2D1    NG2D1     5   123.000000   669.440000   0.00000000         0.00
   CG331    CG2D1    NG2P1     5   125.600000   393.296000   0.00000000         0.00
   CG331    CG2D1     HGA4     5   117.000000   184.096000   0.00000000         0.00
   CG331    CG2D1    HGR52     5   120.400000   351.456000   0.00000000         0.00
  CG3C31    CG2D1     HGA4     5   116.000000   334.720000   0.00000000         0.00
  CG3C50    CG2D1     HGA4     5   114.876000   240.077920   0.00000000         0.00
  CG3C51    CG2D1     HGA4     5   118.039200   165.184320   0.00000000         0.00
  CG3C52    CG2D1   CG3C52     5   112.199600   467.436480   0.00000000         0.00
  CG3RC1    CG2D1    NG2D1     5   142.161400   377.898880   0.00000000         0.00
  CG3RC1    CG2D1     HGA4     5   116.926200   233.467200   0.00000000         0.00
   NG2D1    CG2D1     HGA4     5   119.500000   410.032000   0.00000000         0.00
   NG2P1    CG2D1    HGR52     5   114.000000   326.352000   0.00000000         0.00
  CG251O   CG2D1O    NG301     5   123.666600   360.744480   0.00000000         0.00
  CG251O   CG2D1O     HGA4     5   115.510300   220.747840   0.00000000         0.00
  CG25C1   CG2D1O    CG2O3     5   118.614800   230.454720   0.00000000         0.00
  CG25C1   CG2D1O    CG331     5   117.276700   273.298880   0.00000000         0.00
  CG25C1   CG2D1O    NG301     5   127.810600   538.564480   0.00000000         0.00
  CG25C1   CG2D1O    OG311     5   128.190400   712.367840   0.00000000         0.00
  CG25C1   CG2D1O    OG312     5   128.792900   772.366400   0.00000000         0.00
  CG25C1   CG2D1O     HGA4     5   120.263600   161.669760   0.00000000         0.00
   CG2D1   CG2D1O    CG314     5   116.152300   472.373600   0.00000000         0.00
   CG2D1   CG2D1O    CG321     5   135.130200   436.893280   0.00000000         0.00
   CG2D1   CG2D1O    CG331     5   137.337100   284.763040   0.00000000         0.00
   CG2D1   CG2D1O    NG2S0     5   120.740000   506.347680   0.00000000         0.00
   CG2D1   CG2D1O    NG2S1     5   120.740000   506.347680   0.00000000         0.00
   CG2D1   CG2D1O    NG301     5   122.000000   502.080000   0.00000000         0.00
   CG2D1   CG2D1O    NG311     5   122.000000   502.080000   0.00000000         0.00
   CG2D1   CG2D1O    NG3P1     5   114.944700   517.644480   0.00000000         0.00
   CG2D1   CG2D1O    NG3P2     5   112.248000   630.528800   0.00000000         0.00
   CG2D1   CG2D1O    OG301     5   124.500000   468.608000   0.00000000         0.00
   CG2D1   CG2D1O   OG3R60     5   126.000000   334.720000   0.00000000         0.00
   CG2D1   CG2D1O     HGA4     5   122.000000   435.136000   0.00000000         0.00
  CG2D1O   CG2D1O   CG2DC2     5   118.763700    34.225120   0.00000000         0.00
  CG2D1O   CG2D1O    CG2O1     5   117.500000   401.998720   0.00000000         0.00
  CG2D1O   CG2D1O    CG2O5     5   108.060000   502.080000   0.00000000         0.00
  CG2D1O   CG2D1O   CG2R51     5   128.148200   315.222560   0.00000000         0.00
  CG2D1O   CG2D1O    CG321     5   113.901600   306.185120   0.00000000         0.00
  CG2D1O   CG2D1O    CG331     5   134.817600   346.518880   0.00000000         0.00
  CG2D1O   CG2D1O    NG2D1     5   106.788700   546.179360   0.00000000         0.00
  CG2D1O   CG2D1O    NG2O1     5   105.379200   310.871200   0.00000000         0.00
  CG2D1O   CG2D1O    NG301     5   117.863000   405.680640   0.00000000         0.00
  CG2D1O   CG2D1O    NG311     5   117.656400   407.270560   0.00000000         0.00
  CG2D1O   CG2D1O    NG321     5   122.000000   502.080000   0.00000000         0.00
  CG2D1O   CG2D1O    OG312     5   137.910000   447.353280   0.00000000         0.00
  CG2D1O   CG2D1O    SG311     5   112.818200   263.173600   0.00000000         0.00
  CG2D1O   CG2D1O     HGA4     5   128.576400   215.224960   0.00000000         0.00
   CG2D2   CG2D1O   NG2R61     5   120.740000   506.347680   0.00000000         0.00
   CG2D2   CG2D1O    NG321     5   128.000000   669.440000   0.00000000         0.00
   CG2D2   CG2D1O   NG3C51     5   126.806800   466.181280   0.00000000         0.00
   CG2D2   CG2D1O    OG301     5   123.500000   543.920000   0.00000000         0.00
   CG2D2   CG2D1O     HGA4     5   121.000000   368.192000   0.00000000         0.00
  CG2D2O   CG2D1O   CG2DC1     5   121.893100   249.701120   0.00000000         0.00
  CG2D2O   CG2D1O   OG3R60     5   110.276300   395.973760   0.00000000         0.00
  CG2DC1   CG2D1O    CG2O1     5   117.500000   401.998720   0.00000000         0.00
  CG2DC1   CG2D1O    CG2O3     5   108.060000   502.080000   0.00000000         0.00
  CG2DC1   CG2D1O    CG2O5     5   108.060000   502.080000   0.00000000         0.00
  CG2DC1   CG2D1O   CG2R61     5   115.690700    88.115040   0.00000000         0.00
  CG2DC1   CG2D1O    CG321     5   133.578100   507.435520   0.00000000         0.00
  CG2DC1   CG2D1O    CG331     5   132.604500   507.351840   0.00000000         0.00
  CG2DC1   CG2D1O    NG2D1     5   125.000000   753.120000   0.00000000         0.00
  CG2DC1   CG2D1O    NG2P1     5   113.851000   216.229120   0.00000000         0.00
  CG2DC1   CG2D1O   NG2R43     5   120.740000   506.347680   0.00000000         0.00
  CG2DC1   CG2D1O    NG2S0     5   120.740000   506.347680   0.00000000         0.00
  CG2DC1   CG2D1O    NG2S1     5   120.740000   506.347680   0.00000000         0.00
  CG2DC1   CG2D1O    NG301     5   122.000000   502.080000   0.00000000         0.00
  CG2DC1   CG2D1O    NG311     5   122.000000   502.080000   0.00000000         0.00
  CG2DC1   CG2D1O    NG321     5   122.000000   502.080000   0.00000000         0.00
  CG2DC1   CG2D1O    OG301     5   124.500000   468.608000   0.00000000         0.00
  CG2DC1   CG2D1O    OG311     5   124.500000   468.608000   0.00000000         0.00
  CG2DC1   CG2D1O    OG312     5   137.910000   447.353280   0.00000000         0.00
  CG2DC1   CG2D1O   OG3R60     5   128.000000   334.720000   0.00000000         0.00
  CG2DC1   CG2D1O    SG311     5   124.914800   370.367680   0.00000000         0.00
  CG2DC1   CG2D1O     HGA4     5   120.000000   351.456000   0.00000000         0.00
  CG2DC2   CG2D1O   CG2R61     5   117.772300   339.489760   0.00000000         0.00
  CG2DC2   CG2D1O    NG2O1     5   104.684500   227.693280   0.00000000         0.00
  CG2DC2   CG2D1O    NG321     5   123.480600   390.450880   0.00000000         0.00
  CG2DC2   CG2D1O    OG311     5   138.743900   304.427840   0.00000000         0.00
   CG2O1   CG2D1O    NG2S1     5   120.660000   658.143200   0.00000000         0.00
   CG2O1   CG2D1O    NG311     5   112.824900   289.783840   0.00000000         0.00
   CG2O3   CG2D1O   NG2R43     5   120.660000   658.143200   0.00000000         0.00
   CG2O3   CG2D1O    OG312     5   120.730000   557.225120   0.00000000         0.00
   CG2O5   CG2D1O   CG2R61     5   108.777000   290.788000   0.00000000         0.00
   CG2O5   CG2D1O    OG301     5   116.043300   413.044480   0.00000000         0.00
   CG2O5   CG2D1O    OG311     5   111.880000   574.128480   0.00000000         0.00
   CG2O5   CG2D1O    OG312     5   120.730000   557.225120   0.00000000         0.00
   CG2O5   CG2D1O    SG311     5   106.306300   196.648000   0.00000000         0.00
  CG2R51   CG2D1O    OG312     5   117.690800   369.949280   0.00000000         0.00
  CG2R61   CG2D1O    NG2D1     5   126.333200   277.064480   0.00000000         0.00
  CG2R61   CG2D1O    NG311     5   117.257500   436.976960   0.00000000         0.00
  CG2R61   CG2D1O    OG301     5   113.186800   348.527200   0.00000000         0.00
  CG2R61   CG2D1O    OG311     5   105.817000   253.299360   0.00000000         0.00
  CG2R61   CG2D1O    OG312     5   137.248900   374.133280   0.00000000         0.00
   CG311   CG2D1O    NG2D1     5   121.170000   637.306880   0.00000000         0.00
   CG311   CG2D1O    OG311     5   103.830000   511.284800   0.00000000         0.00
   CG314   CG2D1O    NG311     5   103.630700   490.364800   0.00000000         0.00
   CG321   CG2D1O    NG2S1     5   121.537400   522.832640   0.00000000         0.00
   CG321   CG2D1O    NG311     5   118.121200   461.495200   0.00000000         0.00
   CG321   CG2D1O    OG311     5   124.257500   473.043040   0.00000000         0.00
   CG331   CG2D1O    NG2D1     5   121.170000   637.306880   0.00000000         0.00
   CG331   CG2D1O    NG2S0     5   117.534700   464.256640   0.00000000         0.00
   CG331   CG2D1O    OG311     5   117.183200   467.269120   0.00000000         0.00
   CG331   CG2D1O   OG3R60     5   109.138400   461.746240   0.00000000         0.00
   CG331   CG2D1O    SG311     5   117.280000   298.402880   0.00000000         0.00
   NG2D1   CG2D1O    OG301     5   122.881800   607.767840   0.00000000         0.00
   NG2D1   CG2D1O    OG311     5   120.289900   630.445120   0.00000000         0.00
   NG2D1   CG2D1O   OG3R60     5   121.670900   666.176480   0.00000000         0.00
   NG2D1   CG2D1O    SG311     5   119.560000   607.516800   0.00000000         0.00
   NG2D1   CG2D1O     HGA4     5   119.500000   410.032000   0.00000000         0.00
   NG2P1   CG2D1O     HGA4     5   109.663800   268.863840   0.00000000         0.00
  NG2R61   CG2D1O     HGA4     5   107.069700   261.165280   0.00000000         0.00
   NG2S0   CG2D1O     HGA4     5    88.224900   118.574560   0.00000000         0.00
   NG2S1   CG2D1O     HGA4     5   115.906500   260.997920   0.00000000         0.00
   NG301   CG2D1O     HGA4     5   119.000000   351.456000   0.00000000         0.00
   NG311   CG2D1O     HGA4     5   119.000000   351.456000   0.00000000         0.00
   NG321   CG2D1O    NG321     5   127.913900   650.528320   0.00000000         0.00
   NG321   CG2D1O     HGA4     5   113.000000   251.040000   0.00000000         0.00
  NG3C51   CG2D1O     HGA4     5   115.748000   336.979360   0.00000000         0.00
   NG3P1   CG2D1O     HGA4     5   106.035500   417.395840   0.00000000         0.00
   NG3P2   CG2D1O     HGA4     5   104.490400   363.589600   0.00000000         0.00
   OG301   CG2D1O     HGA4     5   115.500000   251.040000   0.00000000         0.00
  OG3R60   CG2D1O     HGA4     5   112.000000   251.040000   0.00000000         0.00
   SG311   CG2D1O     HGA4     5   113.869600   289.532800   0.00000000         0.00
  CG251O    CG2D2     HGA5     5   121.957100   223.007200   0.00000000         0.00
  CG252O    CG2D2     HGA5     5   121.957100   223.007200   0.00000000         0.00
   CG2D1    CG2D2     HGA5     5   120.500000   376.560000   0.00000000         0.00
  CG2D1O    CG2D2     HGA5     5   120.500000   292.880000   0.00000000         0.00
   CG2D2    CG2D2     HGA5     5   120.500000   464.424000   0.00000000         0.00
  CG2D2O    CG2D2     HGA5     5   120.500000   292.880000   0.00000000         0.00
    HGA5    CG2D2     HGA5     5   119.000000   158.992000   0.00000000         0.00
  CG252O   CG2D2O    NG301     5   123.666600   360.744480   0.00000000         0.00
  CG252O   CG2D2O     HGA4     5   115.510300   220.747840   0.00000000         0.00
  CG25C2   CG2D2O    CG2O3     5   118.614800   230.454720   0.00000000         0.00
  CG25C2   CG2D2O    CG331     5   117.276700   273.298880   0.00000000         0.00
  CG25C2   CG2D2O    NG301     5   127.810600   538.564480   0.00000000         0.00
  CG25C2   CG2D2O    OG311     5   128.190400   712.367840   0.00000000         0.00
  CG25C2   CG2D2O    OG312     5   128.792900   772.366400   0.00000000         0.00
  CG25C2   CG2D2O     HGA4     5   120.263600   161.669760   0.00000000         0.00
   CG2D1   CG2D2O    CG314     5   116.152300   472.373600   0.00000000         0.00
   CG2D1   CG2D2O    CG321     5   135.130200   436.893280   0.00000000         0.00
   CG2D1   CG2D2O    CG331     5   137.337100   284.763040   0.00000000         0.00
   CG2D1   CG2D2O    NG2S0     5   120.740000   506.347680   0.00000000         0.00
   CG2D1   CG2D2O    NG2S1     5   120.740000   506.347680   0.00000000         0.00
   CG2D1   CG2D2O    NG301     5   122.000000   502.080000   0.00000000         0.00
   CG2D1   CG2D2O    NG311     5   122.000000   502.080000   0.00000000         0.00
   CG2D1   CG2D2O    NG3P1     5   114.944700   517.644480   0.00000000         0.00
   CG2D1   CG2D2O    NG3P2     5   112.248000   630.528800   0.00000000         0.00
   CG2D1   CG2D2O    OG301     5   124.500000   468.608000   0.00000000         0.00
   CG2D1   CG2D2O   OG3R60     5   126.000000   334.720000   0.00000000         0.00
   CG2D1   CG2D2O     HGA4     5   122.000000   435.136000   0.00000000         0.00
  CG2D1O   CG2D2O   CG2DC2     5   121.893100   249.701120   0.00000000         0.00
  CG2D1O   CG2D2O   OG3R60     5   110.276300   395.973760   0.00000000         0.00
   CG2D2   CG2D2O   NG2R61     5   120.740000   506.347680   0.00000000         0.00
   CG2D2   CG2D2O    NG321     5   128.000000   669.440000   0.00000000         0.00
   CG2D2   CG2D2O   NG3C51     5   126.806800   466.181280   0.00000000         0.00
   CG2D2   CG2D2O    OG301     5   123.500000   543.920000   0.00000000         0.00
   CG2D2   CG2D2O     HGA4     5   121.000000   368.192000   0.00000000         0.00
  CG2D2O   CG2D2O   CG2DC1     5   118.763700    34.225120   0.00000000         0.00
  CG2D2O   CG2D2O    CG2O1     5   117.500000   401.998720   0.00000000         0.00
  CG2D2O   CG2D2O    CG2O5     5   108.060000   502.080000   0.00000000         0.00
  CG2D2O   CG2D2O   CG2R51     5   128.148200   315.222560   0.00000000         0.00
  CG2D2O   CG2D2O    CG321     5   113.901600   306.185120   0.00000000         0.00
  CG2D2O   CG2D2O    CG331     5   134.817600   346.518880   0.00000000         0.00
  CG2D2O   CG2D2O    NG2D1     5   106.788700   546.179360   0.00000000         0.00
  CG2D2O   CG2D2O    NG2O1     5   105.379200   310.871200   0.00000000         0.00
  CG2D2O   CG2D2O    NG301     5   117.863000   405.680640   0.00000000         0.00
  CG2D2O   CG2D2O    NG311     5   117.656400   407.270560   0.00000000         0.00
  CG2D2O   CG2D2O    NG321     5   122.000000   502.080000   0.00000000         0.00
  CG2D2O   CG2D2O    OG312     5   137.910000   447.353280   0.00000000         0.00
  CG2D2O   CG2D2O    SG311     5   112.818200   263.173600   0.00000000         0.00
  CG2D2O   CG2D2O     HGA4     5   128.576400   215.224960   0.00000000         0.00
  CG2DC1   CG2D2O   CG2R61     5   117.772300   339.489760   0.00000000         0.00
  CG2DC1   CG2D2O    NG2O1     5   104.684500   227.693280   0.00000000         0.00
  CG2DC1   CG2D2O    NG321     5   123.480600   390.450880   0.00000000         0.00
  CG2DC1   CG2D2O    OG311     5   138.743900   304.427840   0.00000000         0.00
  CG2DC2   CG2D2O    CG2O1     5   117.500000   401.998720   0.00000000         0.00
  CG2DC2   CG2D2O    CG2O3     5   108.060000   502.080000   0.00000000         0.00
  CG2DC2   CG2D2O    CG2O5     5   108.060000   502.080000   0.00000000         0.00
  CG2DC2   CG2D2O   CG2R61     5   115.690700    88.115040   0.00000000         0.00
  CG2DC2   CG2D2O    CG321     5   133.578100   507.435520   0.00000000         0.00
  CG2DC2   CG2D2O    CG331     5   132.604500   507.351840   0.00000000         0.00
  CG2DC2   CG2D2O    NG2D1     5   125.000000   753.120000   0.00000000         0.00
  CG2DC2   CG2D2O    NG2P1     5   113.851000   216.229120   0.00000000         0.00
  CG2DC2   CG2D2O   NG2R43     5   120.740000   506.347680   0.00000000         0.00
  CG2DC2   CG2D2O    NG2S0     5   120.740000   506.347680   0.00000000         0.00
  CG2DC2   CG2D2O    NG2S1     5   120.740000   506.347680   0.00000000         0.00
  CG2DC2   CG2D2O    NG301     5   122.000000   502.080000   0.00000000         0.00
  CG2DC2   CG2D2O    NG311     5   122.000000   502.080000   0.00000000         0.00
  CG2DC2   CG2D2O    NG321     5   122.000000   502.080000   0.00000000         0.00
  CG2DC2   CG2D2O    OG301     5   124.500000   468.608000   0.00000000         0.00
  CG2DC2   CG2D2O    OG311     5   124.500000   468.608000   0.00000000         0.00
  CG2DC2   CG2D2O    OG312     5   137.910000   447.353280   0.00000000         0.00
  CG2DC2   CG2D2O   OG3R60     5   128.000000   334.720000   0.00000000         0.00
  CG2DC2   CG2D2O    SG311     5   124.914800   370.367680   0.00000000         0.00
  CG2DC2   CG2D2O     HGA4     5   120.000000   351.456000   0.00000000         0.00
   CG2O1   CG2D2O    NG2S1     5   120.660000   658.143200   0.00000000         0.00
   CG2O1   CG2D2O    NG311     5   112.824900   289.783840   0.00000000         0.00
   CG2O3   CG2D2O   NG2R43     5   120.660000   658.143200   0.00000000         0.00
   CG2O3   CG2D2O    OG312     5   120.730000   557.225120   0.00000000         0.00
   CG2O5   CG2D2O   CG2R61     5   108.777000   290.788000   0.00000000         0.00
   CG2O5   CG2D2O    OG301     5   116.043300   413.044480   0.00000000         0.00
   CG2O5   CG2D2O    OG311     5   111.880000   574.128480   0.00000000         0.00
   CG2O5   CG2D2O    OG312     5   120.730000   557.225120   0.00000000         0.00
   CG2O5   CG2D2O    SG311     5   106.306300   196.648000   0.00000000         0.00
  CG2R51   CG2D2O    OG312     5   117.690800   369.949280   0.00000000         0.00
  CG2R61   CG2D2O    NG2D1     5   126.333200   277.064480   0.00000000         0.00
  CG2R61   CG2D2O    NG311     5   117.257500   436.976960   0.00000000         0.00
  CG2R61   CG2D2O    OG301     5   113.186800   348.527200   0.00000000         0.00
  CG2R61   CG2D2O    OG311     5   105.817000   253.299360   0.00000000         0.00
  CG2R61   CG2D2O    OG312     5   137.248900   374.133280   0.00000000         0.00
   CG311   CG2D2O    NG2D1     5   121.170000   637.306880   0.00000000         0.00
   CG311   CG2D2O    OG311     5   103.830000   511.284800   0.00000000         0.00
   CG314   CG2D2O    NG311     5   103.630700   490.364800   0.00000000         0.00
   CG321   CG2D2O    NG2S1     5   121.537400   522.832640   0.00000000         0.00
   CG321   CG2D2O    NG311     5   118.121200   461.495200   0.00000000         0.00
   CG321   CG2D2O    OG311     5   124.257500   473.043040   0.00000000         0.00
   CG331   CG2D2O    NG2D1     5   121.170000   637.306880   0.00000000         0.00
   CG331   CG2D2O    NG2S0     5   117.534700   464.256640   0.00000000         0.00
   CG331   CG2D2O    OG311     5   117.183200   467.269120   0.00000000         0.00
   CG331   CG2D2O   OG3R60     5   109.138400   461.746240   0.00000000         0.00
   CG331   CG2D2O    SG311     5   117.280000   298.402880   0.00000000         0.00
   NG2D1   CG2D2O    OG301     5   122.881800   607.767840   0.00000000         0.00
   NG2D1   CG2D2O    OG311     5   120.289900   630.445120   0.00000000         0.00
   NG2D1   CG2D2O   OG3R60     5   121.670900   666.176480   0.00000000         0.00
   NG2D1   CG2D2O    SG311     5   119.560000   607.516800   0.00000000         0.00
   NG2D1   CG2D2O     HGA4     5   119.500000   410.032000   0.00000000         0.00
   NG2P1   CG2D2O     HGA4     5   109.663800   268.863840   0.00000000         0.00
  NG2R61   CG2D2O     HGA4     5   107.069700   261.165280   0.00000000         0.00
   NG2S0   CG2D2O     HGA4     5    88.224900   118.574560   0.00000000         0.00
   NG2S1   CG2D2O     HGA4     5   115.906500   260.997920   0.00000000         0.00
   NG301   CG2D2O     HGA4     5   119.000000   351.456000   0.00000000         0.00
   NG311   CG2D2O     HGA4     5   119.000000   351.456000   0.00000000         0.00
   NG321   CG2D2O    NG321     5   127.913900   650.528320   0.00000000         0.00
   NG321   CG2D2O     HGA4     5   113.000000   251.040000   0.00000000         0.00
  NG3C51   CG2D2O     HGA4     5   115.748000   336.979360   0.00000000         0.00
   NG3P1   CG2D2O     HGA4     5   106.035500   417.395840   0.00000000         0.00
   NG3P2   CG2D2O     HGA4     5   104.490400   363.589600   0.00000000         0.00
   OG301   CG2D2O     HGA4     5   115.500000   251.040000   0.00000000         0.00
  OG3R60   CG2D2O     HGA4     5   112.000000   251.040000   0.00000000         0.00
   SG311   CG2D2O     HGA4     5   113.869600   289.532800   0.00000000         0.00
   CG1N1   CG2DC1    CG1N1     5   122.023300   354.217440   0.00000000         0.00
   CG1N1   CG2DC1   CG25C1     5   114.013700   279.240160   0.00000000         0.00
  CG251O   CG2DC1    CG2O3     5   100.660700   320.996480   0.00000000         0.00
  CG251O   CG2DC1   CG2R51     5   122.000000   242.672000   0.00000000         0.00
  CG251O   CG2DC1   CG2R61     5   110.070000   247.692800   0.00000000         0.00
  CG251O   CG2DC1    CG331     5   118.450000   370.535040   0.00000000         0.00
  CG251O   CG2DC1     HGA4     5   116.190000   252.713600   0.00000000         0.00
  CG25C1   CG2DC1    CG2O3     5   117.374400   250.119520   0.00000000         0.00
  CG25C1   CG2DC1   CG2R52     5   122.000000   242.672000   0.00000000         0.00
  CG25C1   CG2DC1     HGA4     5   116.190000   252.713600   0.00000000         0.00
  CG2D1O   CG2DC1   CG2D2O     5   120.000000   401.664000   0.00000000         0.00
  CG2D1O   CG2DC1   CG2DC2     5   120.000000   401.664000   0.00000000         0.00
  CG2D1O   CG2DC1    CG2N2     5   113.000000   543.920000   0.00000000         0.00
  CG2D1O   CG2DC1    CG2O1     5   113.000000   543.920000   0.00000000         0.00
  CG2D1O   CG2DC1    CG2O2     5   113.000000   543.920000   0.00000000         0.00
  CG2D1O   CG2DC1    CG2O3     5   123.500000   401.664000   0.00000000         0.00
  CG2D1O   CG2DC1    CG2O5     5   113.000000   543.920000   0.00000000         0.00
  CG2D1O   CG2DC1   CG2R61     5   122.000000   242.672000   0.00000000         0.00
  CG2D1O   CG2DC1   CG2RC0     5   122.000000   242.672000   0.00000000         0.00
  CG2D1O   CG2DC1    CG311     5   126.500000   364.008000   0.00000000         0.00
  CG2D1O   CG2DC1    CG321     5   126.500000   364.008000   0.00000000         0.00
  CG2D1O   CG2DC1    CG324     5   133.149500   415.303840   0.00000000         0.00
  CG2D1O   CG2DC1    CG331     5   126.500000   364.008000   0.00000000         0.00
  CG2D1O   CG2DC1     HGA4     5   122.000000   351.456000   0.00000000         0.00
  CG2D2O   CG2DC1   CG2DC1     5   123.000000   401.664000   0.00000000         0.00
  CG2D2O   CG2DC1    NG2D1     5   121.530000   470.030560   0.00000000         0.00
  CG2D2O   CG2DC1     HGA4     5   118.000000   351.456000   0.00000000         0.00
  CG2DC1   CG2DC1   CG2DC2     5   123.000000   401.664000   0.00000000         0.00
  CG2DC1   CG2DC1    CG2O1     5   123.500000   401.664000   0.00000000         0.00
  CG2DC1   CG2DC1    CG2O2     5   120.000000   502.080000   0.00000000         0.00
  CG2DC1   CG2DC1    CG2O3     5   123.500000   401.664000   0.00000000         0.00
  CG2DC1   CG2DC1    CG2O4     5   120.000000   502.080000   0.00000000         0.00
  CG2DC1   CG2DC1    CG2O5     5   120.000000   502.080000   0.00000000         0.00
  CG2DC1   CG2DC1   CG2R51     5   120.920000   242.420960   0.00000000         0.00
  CG2DC1   CG2DC1   CG2R52     5   120.920000   242.420960   0.00000000         0.00
  CG2DC1   CG2DC1   CG2R53     5   120.920000   242.420960   0.00000000         0.00
  CG2DC1   CG2DC1   CG2R61     5   122.000000   242.672000   0.00000000         0.00
  CG2DC1   CG2DC1   CG2R62     5   122.000000   242.672000   0.00000000         0.00
  CG2DC1   CG2DC1   CG2R64     5   122.000000   242.672000   0.00000000         0.00
  CG2DC1   CG2DC1    CG301     5   123.500000   401.664000   0.00000000         0.00
  CG2DC1   CG2DC1    CG311     5   123.500000   401.664000   0.00000000         0.00
  CG2DC1   CG2DC1    CG321     5   123.500000   401.664000   0.00000000         0.00
  CG2DC1   CG2DC1    CG324     5   113.712600   311.289600   0.00000000         0.00
  CG2DC1   CG2DC1    CG331     5   123.500000   401.664000   0.00000000         0.00
  CG2DC1   CG2DC1   CG3RC1     5   125.793700   282.336320   0.00000000         0.00
  CG2DC1   CG2DC1     HGA4     5   119.000000   351.456000   0.00000000         0.00
  CG2DC2   CG2DC1   CG2DC2     5   122.960000   390.450880   0.00000000         0.00
  CG2DC2   CG2DC1   CG2DC3     5   123.500000   401.664000   0.00000000         0.00
  CG2DC2   CG2DC1    CG2O1     5   121.570000   403.002880   0.00000000         0.00
  CG2DC2   CG2DC1    CG2O3     5   121.570000   403.002880   0.00000000         0.00
  CG2DC2   CG2DC1    CG2O5     5   121.570000   403.002880   0.00000000         0.00
  CG2DC2   CG2DC1    CG301     5   123.500000   401.664000   0.00000000         0.00
  CG2DC2   CG2DC1    CG311     5   123.500000   401.664000   0.00000000         0.00
  CG2DC2   CG2DC1    CG321     5   113.000000   401.664000   0.00000000         0.00
  CG2DC2   CG2DC1    CG331     5   113.000000   401.664000   0.00000000         0.00
  CG2DC2   CG2DC1    NG2D1     5   121.530000   470.030560   0.00000000         0.00
  CG2DC2   CG2DC1    NG2P1     5   125.600000   334.720000   0.00000000         0.00
  CG2DC2   CG2DC1     HGA4     5   118.000000   351.456000   0.00000000         0.00
  CG2DC2   CG2DC1    HGR52     5   120.400000   351.456000   0.00000000         0.00
  CG2DC3   CG2DC1    CG2O3     5   119.000000   334.720000   0.25267000     29288.00
  CG2DC3   CG2DC1    CG2O4     5   120.000000   502.080000   0.00000000         0.00
  CG2DC3   CG2DC1    CG2O5     5   118.600000   292.880000   0.00000000         0.00
  CG2DC3   CG2DC1   CG2R51     5   122.000000   242.672000   0.00000000         0.00
  CG2DC3   CG2DC1   CG2R61     5   122.000000   242.672000   0.00000000         0.00
  CG2DC3   CG2DC1    CG321     5   123.500000   401.664000   0.00000000         0.00
  CG2DC3   CG2DC1    CG331     5   123.500000   401.664000   0.00000000         0.00
  CG2DC3   CG2DC1     HGA4     5   118.000000   351.456000   0.00000000         0.00
   CG2N2   CG2DC1     HGA4     5   123.400000   267.776000   0.00000000         0.00
   CG2O1   CG2DC1    CG2O3     5   131.905800   196.313280   0.00000000         0.00
   CG2O1   CG2DC1    CG321     5   123.500000   543.920000   0.00000000         0.00
   CG2O1   CG2DC1     HGA4     5   119.500000   435.136000   0.00000000         0.00
   CG2O2   CG2DC1     HGA4     5   122.000000   267.776000   0.00000000         0.00
   CG2O3   CG2DC1    CG321     5   123.500000   543.920000   0.00000000         0.00
   CG2O3   CG2DC1    CG331     5   123.500000   543.920000   0.00000000         0.00
   CG2O3   CG2DC1    NG2D1     5   129.030000   272.713120   0.00000000         0.00
   CG2O3   CG2DC1     HGA4     5   119.500000   435.136000   0.00000000         0.00
   CG2O4   CG2DC1     HGA4     5   122.000000   267.776000   0.00000000         0.00
   CG2O5   CG2DC1   CG2R61     5   117.605700   258.152800   0.00000000         0.00
   CG2O5   CG2DC1    CG311     5   123.500000   543.920000   0.00000000         0.00
   CG2O5   CG2DC1    CG321     5   123.500000   543.920000   0.00000000         0.00
   CG2O5   CG2DC1    NG2D1     5   114.690000   506.012960   0.00000000         0.00
   CG2O5   CG2DC1     HGA4     5   123.400000   267.776000   0.00000000         0.00
  CG2R51   CG2DC1   CG2R61     5   117.468400   487.352320   0.00000000         0.00
  CG2R51   CG2DC1    CG321     5   127.340000   405.345920   0.00000000         0.00
  CG2R51   CG2DC1    CG324     5   108.338800   294.888320   0.00000000         0.00
  CG2R51   CG2DC1    NG2D1     5   117.000000   468.608000   0.00000000         0.00
  CG2R51   CG2DC1     HGA4     5   120.000000   267.776000   0.00000000         0.00
  CG2R52   CG2DC1     HGA4     5   120.000000   267.776000   0.00000000         0.00
  CG2R53   CG2DC1    CG321     5   127.340000   405.345920   0.00000000         0.00
  CG2R53   CG2DC1    CG331     5   127.340000   405.345920   0.00000000         0.00
  CG2R53   CG2DC1    NG2D1     5   117.000000   468.608000   0.00000000         0.00
  CG2R53   CG2DC1     HGA4     5   120.000000   267.776000   0.00000000         0.00
  CG2R61   CG2DC1    CG301     5   127.695900   399.906720   0.00000000         0.00
  CG2R61   CG2DC1    CG311     5   117.684400   342.836960   0.00000000         0.00
  CG2R61   CG2DC1    CG321     5   125.927100   115.729440   0.00000000         0.00
  CG2R61   CG2DC1    CG331     5   130.800500   533.376320   0.00000000         0.00
  CG2R61   CG2DC1    NG2D1     5   117.000000   468.608000   0.00000000         0.00
  CG2R61   CG2DC1     HGA4     5   120.000000   267.776000   0.00000000         0.00
  CG2R62   CG2DC1    CG321     5   116.815500   171.376640   0.00000000         0.00
  CG2R62   CG2DC1     HGA4     5   120.000000   267.776000   0.00000000         0.00
  CG2R64   CG2DC1    CG321     5   114.398200   293.214720   0.00000000         0.00
  CG2RC0   CG2DC1    NG2D1     5   117.000000   468.608000   0.00000000         0.00
  CG2RC0   CG2DC1     HGA4     5   120.000000   267.776000   0.00000000         0.00
   CG301   CG2DC1    CG301     5   123.500000   401.664000   0.00000000         0.00
   CG301   CG2DC1    CG321     5   123.500000   401.664000   0.00000000         0.00
   CG301   CG2DC1    NG2D1     5   142.240000   463.168800   0.00000000         0.00
   CG301   CG2DC1     HGA4     5   116.000000   334.720000   0.00000000         0.00
   CG311   CG2DC1    CG321     5   123.500000   401.664000   0.00000000         0.00
   CG311   CG2DC1     HGA4     5   116.000000   334.720000   0.00000000         0.00
   CG314   CG2DC1    NG2D1     5   118.791600   154.138560   0.00000000         0.00
   CG314   CG2DC1     HGA4     5   130.411700   244.680320   0.00000000         0.00
   CG321   CG2DC1    CG321     5   123.500000   401.664000   0.00000000         0.00
   CG321   CG2DC1    CG331     5   123.500000   401.664000   0.00000000         0.00
   CG321   CG2DC1    NG2D1     5   142.240000   463.168800   0.00000000         0.00
   CG321   CG2DC1     HGA4     5   116.000000   334.720000   0.00000000         0.00
   CG324   CG2DC1     HGA4     5   122.519300   234.889760   0.00000000         0.00
   CG331   CG2DC1    CG331     5   113.000000   393.296000   0.00000000         0.00
   CG331   CG2DC1    NG2D1     5   142.240000   463.168800   0.00000000         0.00
   CG331   CG2DC1     HGA4     5   117.500000   351.456000   0.00000000         0.00
  CG3RC1   CG2DC1     HGA4     5   116.342300   254.805600   0.00000000         0.00
   NG2D1   CG2DC1     HGA4     5   123.000000   317.984000   0.00000000         0.00
   NG2P1   CG2DC1    HGR52     5   114.000000   317.984000   0.00000000         0.00
   CG1N1   CG2DC2    CG1N1     5   122.023300   354.217440   0.00000000         0.00
   CG1N1   CG2DC2   CG25C2     5   114.013700   279.240160   0.00000000         0.00
  CG252O   CG2DC2    CG2O3     5   100.660700   320.996480   0.00000000         0.00
  CG252O   CG2DC2   CG2R51     5   122.000000   242.672000   0.00000000         0.00
  CG252O   CG2DC2   CG2R61     5   110.070000   247.692800   0.00000000         0.00
  CG252O   CG2DC2    CG331     5   118.450000   370.535040   0.00000000         0.00
  CG252O   CG2DC2     HGA4     5   116.190000   252.713600   0.00000000         0.00
  CG25C2   CG2DC2    CG2O3     5   117.374400   250.119520   0.00000000         0.00
  CG25C2   CG2DC2   CG2R52     5   122.000000   242.672000   0.00000000         0.00
  CG25C2   CG2DC2     HGA4     5   116.190000   252.713600   0.00000000         0.00
  CG2D1O   CG2DC2   CG2D2O     5   120.000000   401.664000   0.00000000         0.00
  CG2D1O   CG2DC2   CG2DC2     5   123.000000   401.664000   0.00000000         0.00
  CG2D1O   CG2DC2    NG2D1     5   121.530000   470.030560   0.00000000         0.00
  CG2D1O   CG2DC2     HGA4     5   118.000000   351.456000   0.00000000         0.00
  CG2D2O   CG2DC2   CG2DC1     5   120.000000   401.664000   0.00000000         0.00
  CG2D2O   CG2DC2    CG2N2     5   113.000000   543.920000   0.00000000         0.00
  CG2D2O   CG2DC2    CG2O1     5   113.000000   543.920000   0.00000000         0.00
  CG2D2O   CG2DC2    CG2O2     5   113.000000   543.920000   0.00000000         0.00
  CG2D2O   CG2DC2    CG2O3     5   123.500000   401.664000   0.00000000         0.00
  CG2D2O   CG2DC2    CG2O5     5   113.000000   543.920000   0.00000000         0.00
  CG2D2O   CG2DC2   CG2R61     5   122.000000   242.672000   0.00000000         0.00
  CG2D2O   CG2DC2   CG2RC0     5   122.000000   242.672000   0.00000000         0.00
  CG2D2O   CG2DC2    CG311     5   126.500000   364.008000   0.00000000         0.00
  CG2D2O   CG2DC2    CG321     5   126.500000   364.008000   0.00000000         0.00
  CG2D2O   CG2DC2    CG324     5   133.149500   415.303840   0.00000000         0.00
  CG2D2O   CG2DC2    CG331     5   126.500000   364.008000   0.00000000         0.00
  CG2D2O   CG2DC2     HGA4     5   122.000000   351.456000   0.00000000         0.00
  CG2DC1   CG2DC2   CG2DC1     5   122.960000   390.450880   0.00000000         0.00
  CG2DC1   CG2DC2   CG2DC2     5   123.000000   401.664000   0.00000000         0.00
  CG2DC1   CG2DC2   CG2DC3     5   123.500000   401.664000   0.00000000         0.00
  CG2DC1   CG2DC2    CG2O1     5   121.570000   403.002880   0.00000000         0.00
  CG2DC1   CG2DC2    CG2O3     5   121.570000   403.002880   0.00000000         0.00
  CG2DC1   CG2DC2    CG2O5     5   121.570000   403.002880   0.00000000         0.00
  CG2DC1   CG2DC2    CG301     5   123.500000   401.664000   0.00000000         0.00
  CG2DC1   CG2DC2    CG311     5   123.500000   401.664000   0.00000000         0.00
  CG2DC1   CG2DC2    CG321     5   113.000000   401.664000   0.00000000         0.00
  CG2DC1   CG2DC2    CG331     5   113.000000   401.664000   0.00000000         0.00
  CG2DC1   CG2DC2    NG2D1     5   121.530000   470.030560   0.00000000         0.00
  CG2DC1   CG2DC2    NG2P1     5   125.600000   334.720000   0.00000000         0.00
  CG2DC1   CG2DC2     HGA4     5   118.000000   351.456000   0.00000000         0.00
  CG2DC1   CG2DC2    HGR52     5   120.400000   351.456000   0.00000000         0.00
  CG2DC2   CG2DC2    CG2O1     5   123.500000   401.664000   0.00000000         0.00
  CG2DC2   CG2DC2    CG2O2     5   120.000000   502.080000   0.00000000         0.00
  CG2DC2   CG2DC2    CG2O3     5   123.500000   401.664000   0.00000000         0.00
  CG2DC2   CG2DC2    CG2O4     5   120.000000   502.080000   0.00000000         0.00
  CG2DC2   CG2DC2    CG2O5     5   120.000000   502.080000   0.00000000         0.00
  CG2DC2   CG2DC2   CG2R51     5   120.920000   242.420960   0.00000000         0.00
  CG2DC2   CG2DC2   CG2R52     5   120.920000   242.420960   0.00000000         0.00
  CG2DC2   CG2DC2   CG2R53     5   120.920000   242.420960   0.00000000         0.00
  CG2DC2   CG2DC2   CG2R61     5   122.000000   242.672000   0.00000000         0.00
  CG2DC2   CG2DC2   CG2R62     5   122.000000   242.672000   0.00000000         0.00
  CG2DC2   CG2DC2   CG2R64     5   122.000000   242.672000   0.00000000         0.00
  CG2DC2   CG2DC2    CG301     5   123.500000   401.664000   0.00000000         0.00
  CG2DC2   CG2DC2    CG311     5   123.500000   401.664000   0.00000000         0.00
  CG2DC2   CG2DC2    CG321     5   123.500000   401.664000   0.00000000         0.00
  CG2DC2   CG2DC2    CG324     5   113.712600   311.289600   0.00000000         0.00
  CG2DC2   CG2DC2    CG331     5   123.500000   401.664000   0.00000000         0.00
  CG2DC2   CG2DC2   CG3RC1     5   125.793700   282.336320   0.00000000         0.00
  CG2DC2   CG2DC2     HGA4     5   119.000000   351.456000   0.00000000         0.00
  CG2DC3   CG2DC2    CG2O3     5   119.000000   334.720000   0.25267000     29288.00
  CG2DC3   CG2DC2    CG2O4     5   120.000000   502.080000   0.00000000         0.00
  CG2DC3   CG2DC2    CG2O5     5   118.600000   292.880000   0.00000000         0.00
  CG2DC3   CG2DC2   CG2R51     5   122.000000   242.672000   0.00000000         0.00
  CG2DC3   CG2DC2   CG2R61     5   122.000000   242.672000   0.00000000         0.00
  CG2DC3   CG2DC2    CG321     5   123.500000   401.664000   0.00000000         0.00
  CG2DC3   CG2DC2    CG331     5   123.500000   401.664000   0.00000000         0.00
  CG2DC3   CG2DC2     HGA4     5   118.000000   351.456000   0.00000000         0.00
   CG2N2   CG2DC2     HGA4     5   123.400000   267.776000   0.00000000         0.00
   CG2O1   CG2DC2    CG2O3     5   131.905800   196.313280   0.00000000         0.00
   CG2O1   CG2DC2    CG321     5   123.500000   543.920000   0.00000000         0.00
   CG2O1   CG2DC2     HGA4     5   119.500000   435.136000   0.00000000         0.00
   CG2O2   CG2DC2     HGA4     5   122.000000   267.776000   0.00000000         0.00
   CG2O3   CG2DC2    CG321     5   123.500000   543.920000   0.00000000         0.00
   CG2O3   CG2DC2    CG331     5   123.500000   543.920000   0.00000000         0.00
   CG2O3   CG2DC2    NG2D1     5   129.030000   272.713120   0.00000000         0.00
   CG2O3   CG2DC2     HGA4     5   119.500000   435.136000   0.00000000         0.00
   CG2O4   CG2DC2     HGA4     5   122.000000   267.776000   0.00000000         0.00
   CG2O5   CG2DC2   CG2R61     5   117.605700   258.152800   0.00000000         0.00
   CG2O5   CG2DC2    CG311     5   123.500000   543.920000   0.00000000         0.00
   CG2O5   CG2DC2    CG321     5   123.500000   543.920000   0.00000000         0.00
   CG2O5   CG2DC2    NG2D1     5   114.690000   506.012960   0.00000000         0.00
   CG2O5   CG2DC2     HGA4     5   123.400000   267.776000   0.00000000         0.00
  CG2R51   CG2DC2   CG2R61     5   117.468400   487.352320   0.00000000         0.00
  CG2R51   CG2DC2    CG321     5   127.340000   405.345920   0.00000000         0.00
  CG2R51   CG2DC2    CG324     5   108.338800   294.888320   0.00000000         0.00
  CG2R51   CG2DC2    NG2D1     5   117.000000   468.608000   0.00000000         0.00
  CG2R51   CG2DC2     HGA4     5   120.000000   267.776000   0.00000000         0.00
  CG2R52   CG2DC2     HGA4     5   120.000000   267.776000   0.00000000         0.00
  CG2R53   CG2DC2    CG321     5   127.340000   405.345920   0.00000000         0.00
  CG2R53   CG2DC2    CG331     5   127.340000   405.345920   0.00000000         0.00
  CG2R53   CG2DC2    NG2D1     5   117.000000   468.608000   0.00000000         0.00
  CG2R53   CG2DC2     HGA4     5   120.000000   267.776000   0.00000000         0.00
  CG2R61   CG2DC2    CG301     5   127.695900   399.906720   0.00000000         0.00
  CG2R61   CG2DC2    CG311     5   117.684400   342.836960   0.00000000         0.00
  CG2R61   CG2DC2    CG321     5   125.927100   115.729440   0.00000000         0.00
  CG2R61   CG2DC2    CG331     5   130.800500   533.376320   0.00000000         0.00
  CG2R61   CG2DC2    NG2D1     5   117.000000   468.608000   0.00000000         0.00
  CG2R61   CG2DC2     HGA4     5   120.000000   267.776000   0.00000000         0.00
  CG2R62   CG2DC2    CG321     5   116.815500   171.376640   0.00000000         0.00
  CG2R62   CG2DC2     HGA4     5   120.000000   267.776000   0.00000000         0.00
  CG2R64   CG2DC2    CG321     5   114.398200   293.214720   0.00000000         0.00
  CG2RC0   CG2DC2    NG2D1     5   117.000000   468.608000   0.00000000         0.00
  CG2RC0   CG2DC2     HGA4     5   120.000000   267.776000   0.00000000         0.00
   CG301   CG2DC2    CG301     5   123.500000   401.664000   0.00000000         0.00
   CG301   CG2DC2    CG321     5   123.500000   401.664000   0.00000000         0.00
   CG301   CG2DC2    NG2D1     5   142.240000   463.168800   0.00000000         0.00
   CG301   CG2DC2     HGA4     5   116.000000   334.720000   0.00000000         0.00
   CG311   CG2DC2    CG321     5   123.500000   401.664000   0.00000000         0.00
   CG311   CG2DC2     HGA4     5   116.000000   334.720000   0.00000000         0.00
   CG314   CG2DC2    NG2D1     5   118.791600   154.138560   0.00000000         0.00
   CG314   CG2DC2     HGA4     5   130.411700   244.680320   0.00000000         0.00
   CG321   CG2DC2    CG321     5   123.500000   401.664000   0.00000000         0.00
   CG321   CG2DC2    CG331     5   123.500000   401.664000   0.00000000         0.00
   CG321   CG2DC2    NG2D1     5   142.240000   463.168800   0.00000000         0.00
   CG321   CG2DC2     HGA4     5   116.000000   334.720000   0.00000000         0.00
   CG324   CG2DC2     HGA4     5   122.519300   234.889760   0.00000000         0.00
   CG331   CG2DC2    CG331     5   113.000000   393.296000   0.00000000         0.00
   CG331   CG2DC2    NG2D1     5   142.240000   463.168800   0.00000000         0.00
   CG331   CG2DC2     HGA4     5   117.500000   351.456000   0.00000000         0.00
  CG3RC1   CG2DC2     HGA4     5   116.342300   254.805600   0.00000000         0.00
   NG2D1   CG2DC2     HGA4     5   123.000000   317.984000   0.00000000         0.00
   NG2P1   CG2DC2    HGR52     5   114.000000   317.984000   0.00000000         0.00
  CG251O   CG2DC3     HGA5     5   120.500000   292.880000   0.00000000         0.00
  CG252O   CG2DC3     HGA5     5   120.500000   292.880000   0.00000000         0.00
  CG25C1   CG2DC3     HGA5     5   120.500000   376.560000   0.00000000         0.00
  CG25C2   CG2DC3     HGA5     5   120.500000   376.560000   0.00000000         0.00
  CG2DC1   CG2DC3     HGA5     5   120.500000   376.560000   0.00000000         0.00
  CG2DC2   CG2DC3     HGA5     5   120.500000   376.560000   0.00000000         0.00
    HGA5   CG2DC3     HGA5     5   119.000000   158.992000   0.00000000         0.00
   NG2D1    CG2N1    NG2P1     5   131.681300   450.365760   0.00000000         0.00
   NG2D1    CG2N1    NG311     5   125.000000   418.400000   0.00000000         0.00
   NG2D1    CG2N1    NG321     5   125.000000   836.800000   0.00000000         0.00
   NG2P1    CG2N1    NG2P1     5   120.000000   435.136000   0.23642000     75312.00
   NG2P1    CG2N1   NG2R61     5   101.004600   580.237120   0.00000000         0.00
   NG2P1    CG2N1    NG311     5    96.946700    95.311520   0.00000000         0.00
   NG2P1    CG2N1    NG321     5   124.469400   571.199680   0.00000000         0.00
   NG311    CG2N1    NG321     5   113.000000   418.400000   0.00000000         0.00
   NG321    CG2N1    NG321     5   113.000000   627.600000   0.00000000         0.00
  CG2DC1    CG2N2    NG2P1     5   138.469500   515.050400   0.00000000         0.00
  CG2DC2    CG2N2    NG2P1     5   138.469500   515.050400   0.00000000         0.00
   CG2N2    CG2N2    NG2D1     5   105.443100   363.756960   0.00000000         0.00
   CG2N2    CG2N2    NG2P1     5   114.687600   400.910880   0.00000000         0.00
   CG2N2    CG2N2    NG311     5    97.987900   252.797280   0.00000000         0.00
  CG2R51    CG2N2    NG2P1     5   118.500000   527.184000   0.00000000         0.00
  CG2R53    CG2N2    NG2P1     5   118.500000   527.184000   0.00000000         0.00
  CG2R61    CG2N2    NG2D1     5   115.632800   347.857760   0.00000000         0.00
  CG2R61    CG2N2    NG2P1     5   118.500000   669.440000   0.00000000         0.00
  CG2R61    CG2N2    NG321     5   123.609700   400.910880   0.00000000         0.00
  CG2R62    CG2N2    NG2P1     5   118.500000   669.440000   0.00000000         0.00
   CG301    CG2N2    NG2P1     5   118.500000   435.136000   0.00000000         0.00
   CG311    CG2N2    NG2P1     5   118.500000   435.136000   0.00000000         0.00
   CG321    CG2N2    NG2P1     5   118.500000   435.136000   0.00000000         0.00
   CG331    CG2N2    NG2D1     5   121.600600   392.710240   0.00000000         0.00
   CG331    CG2N2    NG2P1     5   118.500000   435.136000   0.00000000         0.00
   NG2D1    CG2N2    NG2D1     5   132.000000   585.760000   0.00000000         0.00
   NG2D1    CG2N2    NG2P1     5   116.224100   541.493280   0.00000000         0.00
   NG2D1    CG2N2    NG301     5   127.000000   711.280000   0.00000000         0.00
   NG2D1    CG2N2    NG311     5   127.000000   711.280000   0.00000000         0.00
   NG2D1    CG2N2    NG321     5   127.000000   711.280000   0.00000000         0.00
   NG2D1    CG2N2    NG3N1     5   127.000000   711.280000   0.00000000         0.00
   NG2D1    CG2N2    OG301     5   111.957400   475.971840   0.00000000         0.00
   NG2D1    CG2N2    SG311     5   116.400000   309.616000   0.00000000         0.00
   NG2D1    CG2N2     HGA4     5   124.515500   278.570720   0.00000000         0.00
   NG2P1    CG2N2    NG2P1     5   123.000000   435.136000   0.23642000     75312.00
   NG2P1    CG2N2   NG2R52     5   123.000000   435.136000   0.23642000     75312.00
   NG2P1    CG2N2    SG311     5   122.088900   605.843200   0.00000000         0.00
   NG2P1    CG2N2     HGA4     5   114.585500   339.991840   0.00000000         0.00
   NG2P1    CG2N2    HGR52     5   136.626400   276.311360   0.00000000         0.00
  NG2R52    CG2N2    HGR52     5   137.843100   351.958080   0.00000000         0.00
   NG301    CG2N2    OG301     5   105.039200   502.749440   0.00000000         0.00
   NG311    CG2N2    SG311     5   116.600000   468.608000   0.00000000         0.00
   NG321    CG2N2    SG311     5   116.600000   468.608000   0.00000000         0.00
   NG3N1    CG2N2    SG311     5   116.600000   468.608000   0.00000000         0.00
  CG2D1O    CG2O1    NG2D1     5   107.500000   836.800000   0.00000000         0.00
  CG2D1O    CG2O1    NG2S1     5   116.500000   669.440000   0.00000000         0.00
  CG2D1O    CG2O1    OG2D1     5   122.500000   669.440000   0.00000000         0.00
  CG2D1O    CG2O1    SG2D1     5   101.079300   298.570240   0.00000000         0.00
  CG2D2O    CG2O1    NG2D1     5   107.500000   836.800000   0.00000000         0.00
  CG2D2O    CG2O1    NG2S1     5   116.500000   669.440000   0.00000000         0.00
  CG2D2O    CG2O1    OG2D1     5   122.500000   669.440000   0.00000000         0.00
  CG2D2O    CG2O1    SG2D1     5   101.079300   298.570240   0.00000000         0.00
  CG2DC1    CG2O1    NG2D1     5   107.500000   836.800000   0.00000000         0.00
  CG2DC1    CG2O1    NG2S0     5   116.500000   669.440000   0.00000000         0.00
  CG2DC1    CG2O1    NG2S1     5   116.500000   669.440000   0.00000000         0.00
  CG2DC1    CG2O1    NG2S2     5   113.000000   711.280000   0.24600000     66944.00
  CG2DC1    CG2O1    OG2D1     5   122.500000   669.440000   0.00000000         0.00
  CG2DC2    CG2O1    NG2D1     5   107.500000   836.800000   0.00000000         0.00
  CG2DC2    CG2O1    NG2S0     5   116.500000   669.440000   0.00000000         0.00
  CG2DC2    CG2O1    NG2S1     5   116.500000   669.440000   0.00000000         0.00
  CG2DC2    CG2O1    NG2S2     5   113.000000   711.280000   0.24600000     66944.00
  CG2DC2    CG2O1    OG2D1     5   122.500000   669.440000   0.00000000         0.00
   CG2O1    CG2O1    NG2S0     5   107.845400   431.454080   0.00000000         0.00
   CG2O1    CG2O1    NG2S1     5   108.039200   478.398560   0.00000000         0.00
   CG2O1    CG2O1    OG2D1     5   111.764500   455.637600   0.00000000         0.00
  CG2R51    CG2O1    NG2S1     5   115.500000   435.136000   0.00000000         0.00
  CG2R51    CG2O1    NG2S2     5   115.500000   435.136000   0.00000000         0.00
  CG2R51    CG2O1    OG2D1     5   122.000000   376.560000   0.00000000         0.00
  CG2R52    CG2O1    NG2S1     5   115.500000   435.136000   0.00000000         0.00
  CG2R52    CG2O1    OG2D1     5   122.000000   376.560000   0.00000000         0.00
  CG2R61    CG2O1    NG2D1     5   117.000000   669.440000   0.00000000         0.00
  CG2R61    CG2O1    NG2S0     5   116.500000   669.440000   0.00000000         0.00
  CG2R61    CG2O1    NG2S1     5   116.500000   669.440000   0.00000000         0.00
  CG2R61    CG2O1    NG2S2     5   110.230000   418.400000   0.00000000         0.00
  CG2R61    CG2O1    OG2D1     5   121.000000   251.040000   0.00000000         0.00
  CG2R61    CG2O1    SG2D1     5   119.316300   409.697280   0.00000000         0.00
  CG2R62    CG2O1    NG2D1     5   117.000000   669.440000   0.00000000         0.00
  CG2R62    CG2O1    NG2S2     5   113.000000   711.280000   0.24600000     66944.00
  CG2R62    CG2O1    OG2D1     5   118.500000   711.280000   0.24300000     16736.00
  CG2R64    CG2O1    NG2S2     5   113.000000   711.280000   0.24600000     66944.00
  CG2R64    CG2O1    OG2D1     5   118.500000   711.280000   0.24300000     16736.00
   CG301    CG2O1    NG2S0     5   112.500000   167.360000   0.00000000         0.00
   CG301    CG2O1    NG2S1     5   116.500000   669.440000   0.00000000         0.00
   CG301    CG2O1    NG2S2     5   116.500000   418.400000   0.24500000     41840.00
   CG301    CG2O1    OG2D1     5   121.000000   669.440000   0.00000000         0.00
   CG301    CG2O1    SG2D1     5   123.760000   455.470240   0.00000000         0.00
   CG311    CG2O1    NG2D1     5   108.810000   669.440000   0.00000000         0.00
   CG311    CG2O1   NG2R61     5   116.500000   669.440000   0.00000000         0.00
   CG311    CG2O1    NG2S0     5   112.500000   167.360000   0.00000000         0.00
   CG311    CG2O1    NG2S1     5   116.500000   669.440000   0.00000000         0.00
   CG311    CG2O1    NG2S2     5   116.500000   418.400000   0.24500000     41840.00
   CG311    CG2O1    OG2D1     5   121.000000   669.440000   0.00000000         0.00
   CG312    CG2O1    NG2S1     5    99.992900   487.938080   0.00000000         0.00
   CG312    CG2O1    OG2D1     5   109.899300   431.788800   0.00000000         0.00
   CG314    CG2O1    NG2S0     5   112.500000   167.360000   0.00000000         0.00
   CG314    CG2O1    NG2S1     5   116.500000   669.440000   0.00000000         0.00
   CG314    CG2O1    NG2S2     5   116.500000   418.400000   0.24500000     41840.00
   CG314    CG2O1    OG2D1     5   121.000000   669.440000   0.00000000         0.00
   CG321    CG2O1    NG2S0     5   112.500000   167.360000   0.00000000         0.00
   CG321    CG2O1    NG2S1     5   116.500000   669.440000   0.00000000         0.00
   CG321    CG2O1    NG2S2     5   116.500000   418.400000   0.24500000     41840.00
   CG321    CG2O1    OG2D1     5   121.000000   669.440000   0.00000000         0.00
   CG321    CG2O1    SG2D1     5   123.760000   455.470240   0.00000000         0.00
   CG322    CG2O1    NG2S1     5   108.409500   433.127680   0.00000000         0.00
   CG322    CG2O1    OG2D1     5   114.758400   399.990400   0.00000000         0.00
   CG324    CG2O1    NG2D1     5   110.211600   220.998880   0.00000000         0.00
   CG324    CG2O1    NG2S0     5   112.500000   167.360000   0.00000000         0.00
   CG324    CG2O1    NG2S1     5   116.500000   669.440000   0.00000000         0.00
   CG324    CG2O1    NG2S2     5   116.500000   418.400000   0.24500000     41840.00
   CG324    CG2O1    OG2D1     5   121.000000   669.440000   0.00000000         0.00
   CG331    CG2O1    NG2D1     5   109.650000   590.613440   0.00000000         0.00
   CG331    CG2O1   NG2R52     5   102.356400   441.328320   0.00000000         0.00
   CG331    CG2O1   NG2R53     5   116.500000   669.440000   0.00000000         0.00
   CG331    CG2O1    NG2S0     5   115.000000   334.720000   0.00000000         0.00
   CG331    CG2O1    NG2S1     5   116.500000   669.440000   0.00000000         0.00
   CG331    CG2O1    NG2S2     5   116.500000   418.400000   0.24500000     41840.00
   CG331    CG2O1    OG2D1     5   121.000000   669.440000   0.00000000         0.00
  CG3C31    CG2O1    NG2S0     5   112.500000   167.360000   0.00000000         0.00
  CG3C31    CG2O1    OG2D1     5   118.000000   669.440000   0.00000000         0.00
  CG3C41    CG2O1    NG2S0     5   112.500000   167.360000   0.00000000         0.00
  CG3C41    CG2O1    NG2S2     5   112.500000   669.440000   0.00000000         0.00
  CG3C41    CG2O1    OG2D1     5   118.000000   669.440000   0.00000000         0.00
  CG3C50    CG2O1    NG2S0     5   112.500000   167.360000   0.00000000         0.00
  CG3C50    CG2O1    NG2S1     5   116.500000   669.440000   0.00000000         0.00
  CG3C50    CG2O1    OG2D1     5   118.000000   669.440000   0.00000000         0.00
  CG3C51    CG2O1    NG2S0     5   112.500000   167.360000   0.00000000         0.00
  CG3C51    CG2O1    NG2S1     5   116.500000   669.440000   0.00000000         0.00
  CG3C51    CG2O1    NG2S2     5   112.500000   669.440000   0.00000000         0.00
  CG3C51    CG2O1    OG2D1     5   118.000000   669.440000   0.00000000         0.00
  CG3C53    CG2O1    NG2S0     5   112.500000   167.360000   0.00000000         0.00
  CG3C53    CG2O1    NG2S1     5   116.500000   669.440000   0.00000000         0.00
  CG3C53    CG2O1    NG2S2     5   112.500000   669.440000   0.00000000         0.00
  CG3C53    CG2O1    OG2D1     5   118.000000   669.440000   0.00000000         0.00
  CG3RC1    CG2O1    NG2S0     5   112.500000   167.360000   0.00000000         0.00
  CG3RC1    CG2O1    NG2S1     5   116.500000   669.440000   0.00000000         0.00
  CG3RC1    CG2O1    OG2D1     5   118.000000   669.440000   0.00000000         0.00
   NG2D1    CG2O1    OG2D1     5   120.540000   669.440000   0.00000000         0.00
   NG2D1    CG2O1    SG2D1     5    99.366700   372.124960   0.00000000         0.00
  NG2R51    CG2O1    OG2D1     5   122.000000   585.760000   0.00000000         0.00
  NG2R51    CG2O1    HGR52     5   111.458100   338.736640   0.00000000         0.00
  NG2R52    CG2O1    OG2D1     5   114.080900   672.117760   0.00000000         0.00
  NG2R53    CG2O1    OG2D1     5   122.500000   669.440000   0.00000000         0.00
  NG2R61    CG2O1    OG2D1     5   122.500000   669.440000   0.00000000         0.00
   NG2S0    CG2O1    OG2D1     5   124.000000   669.440000   0.00000000         0.00
   NG2S0    CG2O1    SG2D1     5   126.520000   343.171680   0.00000000         0.00
   NG2S0    CG2O1    HGR52     5   115.000000   359.824000   0.00000000         0.00
   NG2S1    CG2O1    OG2D1     5   122.500000   669.440000   0.00000000         0.00
   NG2S1    CG2O1    SG2D1     5   126.520000   343.171680   0.00000000         0.00
   NG2S1    CG2O1    HGR52     5   111.000000   368.192000   0.19800000     41840.00
   NG2S2    CG2O1    OG2D1     5   122.500000   627.600000   0.23700000     41840.00
   NG2S2    CG2O1    SG2D1     5   126.520000   343.171680   0.00000000         0.00
   NG2S2    CG2O1    HGR52     5   111.000000   368.192000   0.19800000     41840.00
   OG2D1    CG2O1    HGR52     5   122.000000   368.192000   0.00000000         0.00
  CG2DC1    CG2O2    OG2D1     5   121.800000   585.760000   0.00000000         0.00
  CG2DC1    CG2O2    OG302     5   111.843100   327.858240   0.00000000         0.00
  CG2DC1    CG2O2    OG311     5   112.470000   334.552640   0.23436000     25078.90
  CG2DC2    CG2O2    OG2D1     5   121.800000   585.760000   0.00000000         0.00
  CG2DC2    CG2O2    OG302     5   111.843100   327.858240   0.00000000         0.00
  CG2DC2    CG2O2    OG311     5   112.470000   334.552640   0.23436000     25078.90
  CG2R51    CG2O2    OG2D1     5   123.100000   585.760000   0.24420000     16736.00
  CG2R51    CG2O2    OG311     5   113.900000   334.720000   0.23700000     25104.00
  CG2R52    CG2O2    OG2D1     5   123.100000   585.760000   0.24420000     16736.00
  CG2R52    CG2O2    OG311     5   113.900000   334.720000   0.23700000     25104.00
  CG2R53    CG2O2    OG2D1     5   123.100000   585.760000   0.24420000     16736.00
  CG2R53    CG2O2    OG311     5   113.900000   334.720000   0.23700000     25104.00
  CG2R61    CG2O2    OG2D1     5   123.100000   585.760000   0.24420000     16736.00
  CG2R61    CG2O2    OG302     5   111.000000   418.400000   0.23600000     16736.00
  CG2R61    CG2O2    OG311     5   113.900000   334.720000   0.23700000     25104.00
  CG2R61    CG2O2   OG3R60     5   111.000000   418.400000   0.23600000     16736.00
  CG2R61    CG2O2    SG2D1     5   127.917800   320.159680   0.00000000         0.00
  CG2R61    CG2O2    SG311     5   114.540000   364.259040   0.26826000     15572.85
  CG2R62    CG2O2    OG2D1     5   123.100000   585.760000   0.24420000     16736.00
  CG2R62    CG2O2    OG311     5   113.900000   334.720000   0.23700000     25104.00
  CG2R62    CG2O2    SG2D1     5   124.873200   256.646560   0.00000000         0.00
  CG2R62    CG2O2    SG311     5   114.540000   364.259040   0.26826000     15572.85
  CG2R64    CG2O2    OG2D1     5   123.100000   585.760000   0.24420000     16736.00
  CG2R64    CG2O2    OG311     5   113.900000   334.720000   0.23700000     25104.00
   CG301    CG2O2    OG2D1     5   125.000000   585.760000   0.24420000     16736.00
   CG301    CG2O2    OG311     5   110.500000   460.240000   0.00000000         0.00
   CG311    CG2O2    OG2D1     5   125.000000   585.760000   0.24420000     16736.00
   CG311    CG2O2    OG302     5   109.000000   460.240000   0.23260000     16736.00
   CG311    CG2O2    OG311     5   110.500000   460.240000   0.00000000         0.00
   CG321    CG2O2    OG2D1     5   125.000000   585.760000   0.24420000     16736.00
   CG321    CG2O2    OG302     5   109.000000   460.240000   0.23260000     16736.00
   CG321    CG2O2    OG303     5   109.000000   460.240000   0.23260000     16736.00
   CG321    CG2O2    OG311     5   110.500000   460.240000   0.00000000         0.00
   CG321    CG2O2    SG311     5   112.730000   331.289120   0.27670000     16677.42
   CG331    CG2O2    OG2D1     5   125.000000   585.760000   0.24420000     16736.00
   CG331    CG2O2    OG302     5   109.000000   460.240000   0.23260000     16736.00
   CG331    CG2O2    OG311     5   110.500000   460.240000   0.00000000         0.00
   CG331    CG2O2    SG311     5   116.030000   358.485120   0.27788000     16685.79
  CG3C31    CG2O2    OG2D1     5   125.000000   585.760000   0.24420000     16736.00
  CG3C31    CG2O2    OG311     5   110.500000   460.240000   0.00000000         0.00
  CG3C41    CG2O2    OG2D1     5   125.000000   585.760000   0.24420000     16736.00
  CG3C41    CG2O2    OG311     5   110.500000   460.240000   0.00000000         0.00
  CG3C50    CG2O2    OG2D1     5   112.444300   438.483200   0.00000000         0.00
  CG3C50    CG2O2    OG311     5    92.453100   368.861440   0.00000000         0.00
  CG3C51    CG2O2    OG2D1     5   118.937700   451.955680   0.00000000         0.00
  CG3C51    CG2O2    OG311     5   102.218000   385.346400   0.00000000         0.00
  CG3RC1    CG2O2    OG2D1     5   115.134500   506.096640   0.00000000         0.00
  CG3RC1    CG2O2    OG311     5    93.765300   406.935840   0.00000000         0.00
   OG2D1    CG2O2    OG302     5   125.900000   753.120000   0.22576000    133888.00
   OG2D1    CG2O2    OG303     5   125.900000   753.120000   0.22576000    133888.00
   OG2D1    CG2O2    OG311     5   123.000000   418.400000   0.22620000    175728.00
   OG2D1    CG2O2   OG3R60     5   125.900000   753.120000   0.22576000    133888.00
   OG2D1    CG2O2    SG311     5   122.400000   572.203840   0.27094000     16476.59
   OG2D1    CG2O2    HGR52     5   119.000000   326.352000   0.00000000         0.00
   OG311    CG2O2    HGR52     5   105.000000   393.296000   0.00000000         0.00
   SG2D1    CG2O2    SG311     5   132.714600   521.075360   0.00000000         0.00
  CG2D1O    CG2O3    OG2D2     5   116.000000   334.720000   0.23530000     41840.00
  CG2D2O    CG2O3    OG2D2     5   116.000000   334.720000   0.23530000     41840.00
  CG2DC1    CG2O3    OG2D2     5   116.000000   334.720000   0.23530000     41840.00
  CG2DC2    CG2O3    OG2D2     5   116.000000   334.720000   0.23530000     41840.00
   CG2O5    CG2O3    OG2D2     5   116.000000   794.960000   0.00000000         0.00
  CG2R51    CG2O3    OG2D2     5   116.000000   334.720000   0.23530000     41840.00
  CG2R52    CG2O3    OG2D2     5   116.000000   334.720000   0.23530000     41840.00
  CG2R53    CG2O3    OG2D2     5   116.000000   334.720000   0.23530000     41840.00
  CG2R61    CG2O3    OG2D2     5   116.000000   334.720000   0.23530000     41840.00
  CG2R62    CG2O3    OG2D2     5   116.000000   334.720000   0.23530000     41840.00
  CG2R64    CG2O3    OG2D2     5   116.000000   334.720000   0.23530000     41840.00
   CG301    CG2O3    OG2D2     5   116.000000   334.720000   0.23530000     41840.00
   CG311    CG2O3    OG2D2     5   116.000000   334.720000   0.23530000     41840.00
   CG314    CG2O3    OG2D2     5   116.000000   334.720000   0.23530000     41840.00
   CG321    CG2O3    OG2D2     5   116.000000   334.720000   0.23530000     41840.00
   CG322    CG2O3    OG2D2     5   104.010000   259.240640   0.24370000     41831.63
   CG324    CG2O3    OG2D2     5   116.000000   334.720000   0.23530000     41840.00
   CG331    CG2O3    OG2D2     5   116.000000   334.720000   0.23530000     41840.00
  CG3C31    CG2O3    OG2D2     5   116.000000   334.720000   0.23530000     41840.00
  CG3C41    CG2O3    OG2D2     5   116.000000   334.720000   0.23530000     41840.00
  CG3C50    CG2O3    OG2D2     5   116.000000   334.720000   0.23530000     41840.00
  CG3C51    CG2O3    OG2D2     5   116.000000   334.720000   0.23530000     41840.00
  CG3C53    CG2O3    OG2D2     5   116.000000   334.720000   0.23530000     41840.00
  CG3RC1    CG2O3    OG2D2     5   116.000000   334.720000   0.23530000     41840.00
   NG2S0    CG2O3    OG2D2     5   105.910000   665.088640   0.00000000         0.00
   NG2S1    CG2O3    OG2D2     5   105.910000   665.088640   0.00000000         0.00
   OG2D2    CG2O3    OG2D2     5   128.000000   836.800000   0.22587000     58576.00
   OG2D2    CG2O3    HGR52     5   116.000000   376.560000   0.00000000         0.00
  CG2DC1    CG2O4    OG2D1     5   126.000000   627.600000   0.00000000         0.00
  CG2DC1    CG2O4    HGR52     5   116.000000   125.520000   0.00000000         0.00
  CG2DC2    CG2O4    OG2D1     5   126.000000   627.600000   0.00000000         0.00
  CG2DC2    CG2O4    HGR52     5   116.000000   125.520000   0.00000000         0.00
   CG2O4    CG2O4   CG2RC0     5    85.000000   383.254400   0.00000000         0.00
   CG2O4    CG2O4    OG2D3     5   137.500000   751.781120   0.00000000         0.00
   CG2O5    CG2O4    SG3O3     5   113.297800   476.139200   0.00000000         0.00
   CG2O5    CG2O4    HGR52     5   124.145600   258.236480   0.00000000         0.00
  CG2R51    CG2O4    OG2D1     5   126.000000   627.600000   0.00000000         0.00
  CG2R51    CG2O4    HGR52     5   116.000000   125.520000   0.00000000         0.00
  CG2R52    CG2O4    OG2D1     5   126.000000   627.600000   0.00000000         0.00
  CG2R52    CG2O4    HGR52     5   116.000000   125.520000   0.00000000         0.00
  CG2R53    CG2O4    OG2D1     5   126.000000   627.600000   0.00000000         0.00
  CG2R53    CG2O4    HGR52     5   116.000000   125.520000   0.00000000         0.00
  CG2R61    CG2O4    OG2D1     5   126.000000   627.600000   0.00000000         0.00
  CG2R61    CG2O4    HGR52     5   116.000000   125.520000   0.00000000         0.00
  CG2R62    CG2O4    OG2D1     5   126.000000   627.600000   0.00000000         0.00
  CG2R62    CG2O4    HGR52     5   114.000000   184.096000   0.00000000         0.00
  CG2RC0    CG2O4    OG2D3     5   135.000000   627.600000   0.00000000         0.00
   CG311    CG2O4    OG2D1     5   126.000000   376.560000   0.00000000         0.00
   CG311    CG2O4    HGR52     5   116.000000   543.920000   0.00000000         0.00
   CG321    CG2O4    OG2D1     5   126.000000   376.560000   0.00000000         0.00
   CG321    CG2O4    HGR52     5   116.000000   543.920000   0.00000000         0.00
   CG331    CG2O4    OG2D1     5   126.000000   376.560000   0.00000000         0.00
   CG331    CG2O4    HGR52     5   116.000000   543.920000   0.00000000         0.00
  CG3C41    CG2O4   CG3C41     5    98.000000   744.752000   0.00000000         0.00
  CG3C41    CG2O4   CG3RC1     5    88.334900   674.628160   0.00000000         0.00
  CG3C41    CG2O4    OG2D1     5   134.000000   585.760000   0.00000000         0.00
  CG3C41    CG2O4    OG2D3     5   134.000000   669.440000   0.00000000         0.00
  CG3C41    CG2O4   OG3C51     5    99.000000   744.752000   0.00000000         0.00
  CG3RC1    CG2O4    OG2D3     5   134.736500   371.455520   0.00000000         0.00
   OG2D1    CG2O4   OG3C51     5   127.000000   585.760000   0.00000000         0.00
   OG2D1    CG2O4    HGR52     5   118.000000   543.920000   0.00000000         0.00
   SG3O3    CG2O4    HGR52     5   118.859400   249.533760   0.00000000         0.00
  CG2D1O    CG2O5   CG2DC1     5   107.730000   339.657120   0.00000000         0.00
  CG2D1O    CG2O5   CG2R61     5   103.054400   547.852960   0.00000000         0.00
  CG2D1O    CG2O5    CG321     5   116.000000   292.880000   0.00000000         0.00
  CG2D1O    CG2O5    OG2D3     5   121.800000   585.760000   0.00000000         0.00
  CG2D2O    CG2O5   CG2DC2     5   107.730000   339.657120   0.00000000         0.00
  CG2D2O    CG2O5   CG2R61     5   103.054400   547.852960   0.00000000         0.00
  CG2D2O    CG2O5    CG321     5   116.000000   292.880000   0.00000000         0.00
  CG2D2O    CG2O5    OG2D3     5   121.800000   585.760000   0.00000000         0.00
  CG2DC1    CG2O5   CG2DC1     5   102.840000   301.248000   0.00000000         0.00
  CG2DC1    CG2O5    CG2O5     5   117.430000   308.360800   0.00000000         0.00
  CG2DC1    CG2O5   CG2R51     5   108.420000   335.389440   0.00000000         0.00
  CG2DC1    CG2O5   CG2R61     5   108.420000   335.389440   0.00000000         0.00
  CG2DC1    CG2O5    CG311     5   116.000000   292.880000   0.00000000         0.00
  CG2DC1    CG2O5    CG321     5   116.000000   292.880000   0.00000000         0.00
  CG2DC1    CG2O5    CG331     5   116.000000   292.880000   0.00000000         0.00
  CG2DC1    CG2O5    OG2D3     5   121.800000   585.760000   0.00000000         0.00
  CG2DC1    CG2O5    SG2D1     5   129.554900   398.651520   0.00000000         0.00
  CG2DC1    CG2O5    SG3O3     5   111.425800   607.851520   0.00000000         0.00
  CG2DC2    CG2O5   CG2DC2     5   102.840000   301.248000   0.00000000         0.00
  CG2DC2    CG2O5    CG2O5     5   117.430000   308.360800   0.00000000         0.00
  CG2DC2    CG2O5   CG2R51     5   108.420000   335.389440   0.00000000         0.00
  CG2DC2    CG2O5   CG2R61     5   108.420000   335.389440   0.00000000         0.00
  CG2DC2    CG2O5    CG311     5   116.000000   292.880000   0.00000000         0.00
  CG2DC2    CG2O5    CG321     5   116.000000   292.880000   0.00000000         0.00
  CG2DC2    CG2O5    CG331     5   116.000000   292.880000   0.00000000         0.00
  CG2DC2    CG2O5    OG2D3     5   121.800000   585.760000   0.00000000         0.00
  CG2DC2    CG2O5    SG2D1     5   129.554900   398.651520   0.00000000         0.00
  CG2DC2    CG2O5    SG3O3     5   111.425800   607.851520   0.00000000         0.00
   CG2O3    CG2O5   CG2R61     5   117.200000   334.720000   0.00000000         0.00
   CG2O3    CG2O5    CG321     5   108.190000   167.360000   0.00000000         0.00
   CG2O3    CG2O5    OG2D3     5   121.500000   794.960000   0.00000000         0.00
   CG2O4    CG2O5    CG321     5   109.105500   600.906080   0.00000000         0.00
   CG2O4    CG2O5    OG2D3     5   116.550000   751.781120   0.00000000         0.00
   CG2O5    CG2O5   CG2R51     5   107.150000   323.339520   0.00000000         0.00
   CG2O5    CG2O5    CG311     5   105.816900   276.060320   0.00000000         0.00
   CG2O5    CG2O5    CG321     5   105.215600   274.805120   0.00000000         0.00
   CG2O5    CG2O5   CG3RC1     5   108.190000   167.360000   0.00000000         0.00
   CG2O5    CG2O5    OG2D3     5   116.550000   751.781120   0.00000000         0.00
  CG2R51    CG2O5   CG2R61     5   107.750000   334.134240   0.00000000         0.00
  CG2R51    CG2O5    CG321     5   116.500000   167.360000   0.00000000         0.00
  CG2R51    CG2O5    CG331     5   116.500000   502.080000   0.00000000         0.00
  CG2R51    CG2O5    OG2D3     5   121.300000   585.760000   0.00000000         0.00
  CG2R52    CG2O5    CG321     5   116.500000   167.360000   0.00000000         0.00
  CG2R52    CG2O5    OG2D3     5   121.300000   585.760000   0.00000000         0.00
  CG2R53    CG2O5    CG331     5   116.500000   502.080000   0.00000000         0.00
  CG2R53    CG2O5    OG2D3     5   121.300000   585.760000   0.00000000         0.00
  CG2R61    CG2O5   CG2R61     5   107.750000   334.134240   0.00000000         0.00
  CG2R61    CG2O5    CG311     5   117.200000   334.720000   0.00000000         0.00
  CG2R61    CG2O5    CG321     5   116.500000   167.360000   0.00000000         0.00
  CG2R61    CG2O5    CG331     5   116.500000   502.080000   0.00000000         0.00
  CG2R61    CG2O5   CG3RC1     5   107.041000   417.814240   0.00000000         0.00
  CG2R61    CG2O5    OG2D3     5   121.300000   585.760000   0.00000000         0.00
  CG2R62    CG2O5    CG331     5   116.500000   502.080000   0.00000000         0.00
  CG2R62    CG2O5    OG2D3     5   121.300000   585.760000   0.00000000         0.00
   CG301    CG2O5    CG301     5   115.600000   292.880000   0.00000000         0.00
   CG301    CG2O5    CG311     5   115.600000   292.880000   0.00000000         0.00
   CG301    CG2O5    CG321     5   115.600000   292.880000   0.00000000         0.00
   CG301    CG2O5    CG331     5   115.600000   292.880000   0.00000000         0.00
   CG301    CG2O5   CG3C51     5   113.186000   290.871680   0.00000000         0.00
   CG301    CG2O5    OG2D3     5   121.500000   794.960000   0.00000000         0.00
   CG311    CG2O5    CG311     5   115.600000   292.880000   0.00000000         0.00
   CG311    CG2O5    CG321     5   115.600000   292.880000   0.00000000         0.00
   CG311    CG2O5    CG331     5   115.600000   292.880000   0.00000000         0.00
   CG311    CG2O5    OG2D3     5   121.500000   794.960000   0.00000000         0.00
   CG311    CG2O5    SG2D1     5   111.712100   230.203680   0.00000000         0.00
   CG312    CG2O5    CG321     5   111.687500   333.381120   0.00000000         0.00
   CG312    CG2O5    OG2D3     5   111.374400   410.115680   0.00000000         0.00
   CG314    CG2O5    CG321     5   120.973000   285.850880   0.00000000         0.00
   CG314    CG2O5    OG2D3     5   115.831600   607.098400   0.00000000         0.00
   CG321    CG2O5    CG321     5   115.600000   292.880000   0.00000000         0.00
   CG321    CG2O5    CG331     5   115.600000   292.880000   0.00000000         0.00
   CG321    CG2O5   CG3C31     5   115.600000   292.880000   0.00000000         0.00
   CG321    CG2O5   CG3RC1     5   115.453300   380.409280   0.00000000         0.00
   CG321    CG2O5    OG2D3     5   122.200000   627.600000   0.00000000         0.00
   CG322    CG2O5    CG324     5   111.134400   330.703360   0.00000000         0.00
   CG322    CG2O5    OG2D3     5   122.954600   468.859040   0.00000000         0.00
   CG324    CG2O5    OG2D3     5   122.950300   505.678240   0.00000000         0.00
   CG331    CG2O5    CG331     5   115.600000   292.880000   0.00000000         0.00
   CG331    CG2O5    OG2D3     5   122.200000   627.600000   0.00000000         0.00
  CG3C31    CG2O5    OG2D3     5   122.200000   627.600000   0.00000000         0.00
  CG3C50    CG2O5   CG3C52     5   113.662200   675.130240   0.00000000         0.00
  CG3C50    CG2O5    OG2D3     5   117.115400   495.469280   0.00000000         0.00
  CG3C51    CG2O5   CG3C51     5   121.445800   544.840480   0.00000000         0.00
  CG3C51    CG2O5   CG3C52     5   113.027900   724.334080   0.00000000         0.00
  CG3C51    CG2O5    OG2D3     5   120.853300   536.556160   0.00000000         0.00
  CG3C52    CG2O5   CG3C52     5   108.721100   658.896320   0.00000000         0.00
  CG3C52    CG2O5    OG2D3     5   122.171700   472.540960   0.00000000         0.00
  CG3RC1    CG2O5   CG3RC1     5   104.602500   911.442560   0.00000000         0.00
  CG3RC1    CG2O5    OG2D3     5   117.506600   486.013440   0.00000000         0.00
   NG2D1    CG2O6    NG2D1     5   109.666900   190.037280   0.00000000         0.00
   NG2D1    CG2O6    NG2S1     5   112.500000   599.148800   0.00000000         0.00
   NG2D1    CG2O6    OG2D1     5   125.440000   733.120480   0.00000000         0.00
   NG2D1    CG2O6    SG2D1     5   122.569000   463.670880   0.00000000         0.00
  NG2R51    CG2O6    NG2S1     5   112.300000   418.400000   0.00000000         0.00
  NG2R51    CG2O6    NG2S2     5   112.300000   418.400000   0.00000000         0.00
  NG2R51    CG2O6    OG2D1     5   122.000000   585.760000   0.00000000         0.00
  NG2R51    CG2O6    SG2D1     5   125.514500   367.940960   0.00000000         0.00
  NG2R52    CG2O6    NG2S1     5   100.559100   818.808800   0.00000000         0.00
  NG2R52    CG2O6    OG2D1     5   114.962300   589.107200   0.00000000         0.00
   NG2S0    CG2O6    NG2S0     5   112.900000   589.944000   0.00000000         0.00
   NG2S0    CG2O6    NG2S1     5   112.900000   589.944000   0.00000000         0.00
   NG2S0    CG2O6    NG2S2     5   112.900000   589.944000   0.00000000         0.00
   NG2S0    CG2O6    OG2D1     5   125.700000   524.673600   0.00000000         0.00
   NG2S0    CG2O6    OG302     5   110.300000   753.120000   0.00000000         0.00
   NG2S0    CG2O6    OG311     5   110.300000   753.120000   0.00000000         0.00
   NG2S0    CG2O6   OG3R60     5   110.300000   753.120000   0.00000000         0.00
   NG2S0    CG2O6    SG2D1     5   126.608400   644.168640   0.00000000         0.00
   NG2S0    CG2O6    SG311     5   112.270000   346.602560   0.00000000         0.00
   NG2S1    CG2O6    NG2S1     5   115.000000   585.760000   0.00000000         0.00
   NG2S1    CG2O6    NG2S2     5   115.000000   585.760000   0.00000000         0.00
   NG2S1    CG2O6    OG2D1     5   125.700000   502.080000   0.00000000         0.00
   NG2S1    CG2O6    OG302     5   110.300000   753.120000   0.00000000         0.00
   NG2S1    CG2O6   OG3R60     5   110.300000   753.120000   0.00000000         0.00
   NG2S1    CG2O6    SG2D1     5   129.090000   602.579680   0.00000000         0.00
   NG2S1    CG2O6    SG311     5   112.270000   346.602560   0.00000000         0.00
   NG2S2    CG2O6    NG2S2     5   115.000000   585.760000   0.00000000         0.00
   NG2S2    CG2O6    OG2D1     5   122.500000   627.600000   0.23700000     41840.00
   NG2S2    CG2O6    SG2D1     5   128.930000   695.631840   0.00000000         0.00
   NG2S2    CG2O6    SG311     5   112.270000   346.602560   0.00000000         0.00
   OG2D1    CG2O6    OG302     5   123.500000   585.760000   0.00000000         0.00
   OG2D1    CG2O6    OG311     5   123.500000   585.760000   0.00000000         0.00
   OG2D1    CG2O6   OG3R60     5   123.500000   585.760000   0.00000000         0.00
   OG2D1    CG2O6    SG311     5   122.090000   347.690400   0.00000000         0.00
   OG2D2    CG2O6    OG2D2     5   120.000000   334.720000   0.22412700     83261.60
   OG2D2    CG2O6    OG311     5   120.000000   661.072000   0.00000000         0.00
   OG302    CG2O6    OG302     5   105.000000   711.280000   0.00000000         0.00
  OG3R60    CG2O6    SG2D1     5   121.259400   532.874240   0.00000000         0.00
   SG2D1    CG2O6    SG311     5   124.000000   585.760000   0.00000000         0.00
   SG311    CG2O6    SG311     5   112.000000   334.720000   0.00000000         0.00
   NG2D1    CG2O7    OG2D5     5   172.000000   351.456000   0.00000000         0.00
   OG2D5    CG2O7    OG2D5     5   180.000000   376.560000   0.00000000         0.00
   CG1N1   CG2R51   CG2R51     5   128.700000   376.560000   0.00000000         0.00
   CG1N1   CG2R51   CG2RC0     5   126.700000   334.720000   0.00000000         0.00
  CG2D1O   CG2R51   CG2R51     5   154.350000   291.875840   0.00000000         0.00
  CG2D1O   CG2R51   SG2R50     5   121.203500     8.368000   0.00000000         0.00
  CG2D2O   CG2R51   CG2R51     5   154.350000   291.875840   0.00000000         0.00
  CG2D2O   CG2R51   SG2R50     5   121.203500     8.368000   0.00000000         0.00
  CG2DC1   CG2R51   CG2R51     5   154.350000   291.875840   0.00000000         0.00
  CG2DC1   CG2R51   CG2R52     5   154.350000   291.875840   0.00000000         0.00
  CG2DC1   CG2R51   CG2RC0     5   152.490000   292.210560   0.00000000         0.00
  CG2DC1   CG2R51   NG2R50     5   153.480000   292.880000   0.25191000     16342.70
  CG2DC1   CG2R51   NG2R51     5   139.148200   282.085280   0.00000000         0.00
  CG2DC1   CG2R51   OG3C51     5   148.143400   259.575360   0.00000000         0.00
  CG2DC2   CG2R51   CG2R51     5   154.350000   291.875840   0.00000000         0.00
  CG2DC2   CG2R51   CG2R52     5   154.350000   291.875840   0.00000000         0.00
  CG2DC2   CG2R51   CG2RC0     5   152.490000   292.210560   0.00000000         0.00
  CG2DC2   CG2R51   NG2R50     5   153.480000   292.880000   0.25191000     16342.70
  CG2DC2   CG2R51   NG2R51     5   139.148200   282.085280   0.00000000         0.00
  CG2DC2   CG2R51   OG3C51     5   148.143400   259.575360   0.00000000         0.00
   CG2N2   CG2R51   CG2R51     5   125.300000   125.520000   0.00000000         0.00
   CG2N2   CG2R51   CG2RC0     5   128.000000   125.520000   0.00000000         0.00
   CG2N2   CG2R51   NG2R51     5   124.000000   292.880000   0.00000000         0.00
   CG2N2   CG2R51   NG2RC0     5   117.089000   224.931840   0.00000000         0.00
   CG2N2   CG2R51   OG2R50     5   106.680000   324.008960   0.00000000         0.00
   CG2O1   CG2R51   CG2R51     5   130.000000   292.880000   0.00000000         0.00
   CG2O1   CG2R51   CG2RC0     5   130.000000   292.880000   0.00000000         0.00
   CG2O1   CG2R51   NG2R50     5   109.621700   271.457920   0.00000000         0.00
   CG2O1   CG2R51   NG2R51     5   124.000000   292.880000   0.00000000         0.00
   CG2O1   CG2R51   SG2R50     5   115.161400   443.420320   0.00000000         0.00
   CG2O2   CG2R51   CG2R51     5   130.000000   292.880000   0.00000000         0.00
   CG2O2   CG2R51   SG2R50     5   104.654300   325.180480   0.00000000         0.00
   CG2O3   CG2R51   CG2R51     5   130.000000   292.880000   0.00000000         0.00
   CG2O3   CG2R51   CG2R53     5   130.000000   292.880000   0.00000000         0.00
   CG2O3   CG2R51   NG2R50     5   127.152200    35.145600   0.00000000         0.00
   CG2O3   CG2R51   OG2R50     5   108.519100   212.881920   0.00000000         0.00
   CG2O4   CG2R51   CG2R51     5   130.000000   292.880000   0.00000000         0.00
   CG2O4   CG2R51   SG2R50     5   126.699700   197.233760   0.00000000         0.00
   CG2O5   CG2R51   CG2R51     5   130.000000   292.880000   0.00000000         0.00
   CG2O5   CG2R51   CG2R53     5   130.000000   292.880000   0.00000000         0.00
   CG2O5   CG2R51   CG2RC7     5   120.771100   199.242080   0.00000000         0.00
   CG2O5   CG2R51   NG2R50     5   113.240500   242.169920   0.00000000         0.00
   CG2O5   CG2R51   NG2R51     5   124.000000   292.880000   0.00000000         0.00
   CG2O5   CG2R51   OG3C51     5   124.729500   316.896160   0.00000000         0.00
  CG2R51   CG2R51   CG2R51     5   107.200000   753.120000   0.00000000         0.00
  CG2R51   CG2R51   CG2R52     5   106.000000   753.120000   0.00000000         0.00
  CG2R51   CG2R51   CG2R53     5   116.500000   836.800000   0.00000000         0.00
  CG2R51   CG2R51   CG2R57     5   107.200000   753.120000   0.00000000         0.00
  CG2R51   CG2R51   CG2R61     5   139.922500   294.469920   0.00000000         0.00
  CG2R51   CG2R51   CG2R62     5   124.867000   199.242080   0.00000000         0.00
  CG2R51   CG2R51   CG2R64     5   128.493500    24.099840   0.00000000         0.00
  CG2R51   CG2R51   CG2RC0     5   105.700000   711.280000   0.22610000     20920.00
  CG2R51   CG2R51   CG2RC7     5   106.900000   585.760000   0.00000000         0.00
  CG2R51   CG2R51    CG301     5   130.000000   383.254400   0.00000000         0.00
  CG2R51   CG2R51    CG302     5   119.401700   183.342880   0.00000000         0.00
  CG2R51   CG2R51    CG311     5   130.000000   383.254400   0.00000000         0.00
  CG2R51   CG2R51    CG312     5   116.398700   213.635040   0.00000000         0.00
  CG2R51   CG2R51    CG314     5   131.250000   410.366720   0.00000000         0.00
  CG2R51   CG2R51    CG321     5   130.000000   383.254400   0.00000000         0.00
  CG2R51   CG2R51    CG324     5   130.000000   383.254400   0.00000000         0.00
  CG2R51   CG2R51    CG331     5   130.000000   383.254400   0.00000000         0.00
  CG2R51   CG2R51   CG3C31     5   130.000000   383.254400   0.00000000         0.00
  CG2R51   CG2R51   CG3C41     5   130.000000   383.254400   0.00000000         0.00
  CG2R51   CG2R51   CG3C50     5   109.000000   962.320000   0.00000000         0.00
  CG2R51   CG2R51   CG3C51     5   109.000000   962.320000   0.00000000         0.00
  CG2R51   CG2R51   CG3C52     5   109.000000   962.320000   0.00000000         0.00
  CG2R51   CG2R51   CG3C53     5   109.000000   962.320000   0.00000000         0.00
  CG2R51   CG2R51   CG3C54     5   109.000000   962.320000   0.00000000         0.00
  CG2R51   CG2R51   CG3RC1     5   117.306700   380.325600   0.00000000         0.00
  CG2R51   CG2R51    NG2O1     5    99.355700   196.731680   0.00000000         0.00
  CG2R51   CG2R51   NG2R50     5   110.000000  1087.840000   0.00000000         0.00
  CG2R51   CG2R51   NG2R51     5   106.000000  1087.840000   0.00000000         0.00
  CG2R51   CG2R51   NG2R52     5   108.000000  1213.360000   0.00000000         0.00
  CG2R51   CG2R51   NG2R53     5   106.000000  1087.840000   0.00000000         0.00
  CG2R51   CG2R51   NG2R57     5   106.000000  1087.840000   0.00000000         0.00
  CG2R51   CG2R51   NG2R61     5   117.681200   179.660960   0.00000000         0.00
  CG2R51   CG2R51   NG2RC0     5   108.200000  1087.840000   0.00000000         0.00
  CG2R51   CG2R51    NG2S1     5   119.484700   323.841600   0.00000000         0.00
  CG2R51   CG2R51    NG301     5   136.292700   344.343200   0.00000000         0.00
  CG2R51   CG2R51    NG311     5   122.631500   237.567520   0.00000000         0.00
  CG2R51   CG2R51    NG321     5   159.516100   310.452800   0.00000000         0.00
  CG2R51   CG2R51   NG3C51     5   111.800000   878.640000   0.00000000         0.00
  CG2R51   CG2R51    NG3P1     5   111.000000  1004.160000   0.00000000         0.00
  CG2R51   CG2R51    NG3P2     5   111.000000  1004.160000   0.00000000         0.00
  CG2R51   CG2R51   OG2R50     5   111.700000  1087.840000   0.00000000         0.00
  CG2R51   CG2R51    OG311     5   128.120000   518.732320   0.00000000         0.00
  CG2R51   CG2R51    OG312     5   134.910000   631.700320   0.00000000         0.00
  CG2R51   CG2R51   OG3C51     5   113.200000  1129.680000   0.00000000         0.00
  CG2R51   CG2R51   OG3R60     5   130.853900   403.253920   0.00000000         0.00
  CG2R51   CG2R51   SG2R50     5   109.000000   878.640000   0.00000000         0.00
  CG2R51   CG2R51    SG311     5   121.424700    42.091040   0.00000000         0.00
  CG2R51   CG2R51    SG3O1     5   124.994500   299.239680   0.00000000         0.00
  CG2R51   CG2R51    SG3O2     5   129.000000   225.936000   0.00000000         0.00
  CG2R51   CG2R51     FGR1     5   124.274000   203.091360   0.00000000         0.00
  CG2R51   CG2R51    HGR51     5   126.400000   267.776000   0.21730000     20920.00
  CG2R51   CG2R51    HGR52     5   130.000000   184.096000   0.22150000     12552.00
  CG2R52   CG2R51   CG2R53     5   116.500000   836.800000   0.00000000         0.00
  CG2R52   CG2R51   CG2R57     5   106.000000   753.120000   0.00000000         0.00
  CG2R52   CG2R51   CG2R61     5   140.079300   351.539680   0.00000000         0.00
  CG2R52   CG2R51   CG2RC0     5   106.000000   753.120000   0.00000000         0.00
  CG2R52   CG2R51    CG301     5   130.000000   167.360000   0.00000000         0.00
  CG2R52   CG2R51    CG311     5   130.000000   167.360000   0.00000000         0.00
  CG2R52   CG2R51    CG314     5   131.250000   410.366720   0.00000000         0.00
  CG2R52   CG2R51    CG321     5   130.000000   167.360000   0.00000000         0.00
  CG2R52   CG2R51    CG324     5   130.000000   383.254400   0.00000000         0.00
  CG2R52   CG2R51    CG331     5   133.397400   149.787200   0.00000000         0.00
  CG2R52   CG2R51   CG3C31     5   130.000000   167.360000   0.00000000         0.00
  CG2R52   CG2R51   CG3C51     5   102.018400  1511.762880   0.00000000         0.00
  CG2R52   CG2R51   CG3C52     5   109.000000   962.320000   0.00000000         0.00
  CG2R52   CG2R51    NG311     5   132.704000   329.197120   0.00000000         0.00
  CG2R52   CG2R51   OG2R50     5   111.700000  1087.840000   0.00000000         0.00
  CG2R52   CG2R51   SG2R50     5   109.000000   878.640000   0.00000000         0.00
  CG2R52   CG2R51    SG3O2     5   129.000000   225.936000   0.00000000         0.00
  CG2R52   CG2R51    HGR51     5   127.600000   125.520000   0.00000000         0.00
  CG2R53   CG2R51   CG2R61     5   135.400000   289.030720   0.00000000         0.00
  CG2R53   CG2R51   CG2RC7     5   106.900000   585.760000   0.00000000         0.00
  CG2R53   CG2R51    CG311     5   130.000000   167.360000   0.00000000         0.00
  CG2R53   CG2R51    CG331     5   130.000000   167.360000   0.00000000         0.00
  CG2R53   CG2R51    NG301     5   112.123800   385.179040   0.00000000         0.00
  CG2R53   CG2R51    OG311     5   128.120000   518.732320   0.00000000         0.00
  CG2R53   CG2R51    HGR51     5   117.100000    83.680000   0.00000000         0.00
  CG2R57   CG2R51   CG2RC0     5   105.700000   711.280000   0.22610000     20920.00
  CG2R57   CG2R51    CG321     5   130.000000   383.254400   0.00000000         0.00
  CG2R57   CG2R51    CG331     5   130.000000   383.254400   0.00000000         0.00
  CG2R57   CG2R51   CG3C52     5   109.000000   962.320000   0.00000000         0.00
  CG2R57   CG2R51   NG2R50     5   110.000000  1087.840000   0.00000000         0.00
  CG2R57   CG2R51   NG2R51     5   106.000000  1087.840000   0.00000000         0.00
  CG2R57   CG2R51   NG2R52     5   108.000000  1213.360000   0.00000000         0.00
  CG2R57   CG2R51   SG2R50     5   109.000000   878.640000   0.00000000         0.00
  CG2R57   CG2R51    HGR51     5   126.400000   267.776000   0.21730000     20920.00
  CG2R57   CG2R51    HGR52     5   130.000000   184.096000   0.22150000     12552.00
  CG2R61   CG2R51   CG3C52     5   133.301500   414.885440   0.00000000         0.00
  CG2R61   CG2R51   CG3C54     5   126.564400   283.675200   0.00000000         0.00
  CG2R61   CG2R51   NG2R50     5   125.741400   363.756960   0.00000000         0.00
  CG2R61   CG2R51   NG2R51     5   110.120200   400.827200   0.00000000         0.00
  CG2R61   CG2R51   NG2R52     5   114.375800    17.238080   0.00000000         0.00
  CG2R61   CG2R51   OG2R50     5   120.641300   283.507840   0.00000000         0.00
  CG2R62   CG2R51   CG3C54     5   118.640600   398.735200   0.00000000         0.00
  CG2R64   CG2R51   OG2R50     5   117.638400   330.033920   0.00000000         0.00
  CG2RC0   CG2R51    CG302     5   125.360200   178.907840   0.00000000         0.00
  CG2RC0   CG2R51    CG311     5   126.700000   251.040000   0.00000000         0.00
  CG2RC0   CG2R51    CG321     5   126.700000   251.040000   0.00000000         0.00
  CG2RC0   CG2R51    CG324     5   126.700000   251.040000   0.00000000         0.00
  CG2RC0   CG2R51    CG331     5   126.700000   251.040000   0.00000000         0.00
  CG2RC0   CG2R51   CG3C52     5   109.000000   962.320000   0.00000000         0.00
  CG2RC0   CG2R51   NG2R50     5   110.000000  1087.840000   0.00000000         0.00
  CG2RC0   CG2R51   NG2R51     5   107.500000   836.800000   0.00000000         0.00
  CG2RC0   CG2R51   NG2R52     5   108.000000  1213.360000   0.00000000         0.00
  CG2RC0   CG2R51   NG2RC0     5   108.200000  1087.840000   0.00000000         0.00
  CG2RC0   CG2R51   OG2R50     5   111.700000  1087.840000   0.00000000         0.00
  CG2RC0   CG2R51    OG311     5   128.120000   518.732320   0.00000000         0.00
  CG2RC0   CG2R51    SG3O1     5   126.714900   162.171840   0.00000000         0.00
  CG2RC0   CG2R51    HGR51     5   126.400000   267.776000   0.22550000     20920.00
  CG2RC0   CG2R51    HGR52     5   128.500000   259.408000   0.00000000         0.00
  CG2RC7   CG2R51   NG2R51     5   107.500000   836.800000   0.00000000         0.00
  CG2RC7   CG2R51    HGR51     5   126.700000   267.776000   0.00000000         0.00
  CG2RC7   CG2R51    HGR52     5   126.700000   267.776000   0.00000000         0.00
   CG301   CG2R51   CG3C52     5   119.830000   379.488800   0.00000000         0.00
   CG301   CG2R51   NG2R50     5   120.000000   383.254400   0.00000000         0.00
   CG301   CG2R51   NG2R51     5   124.000000   383.254400   0.00000000         0.00
   CG301   CG2R51   NG2R52     5   122.000000   383.254400   0.00000000         0.00
   CG301   CG2R51   SG2R50     5   123.700000   313.381600   0.00000000         0.00
   CG311   CG2R51   NG2R51     5   124.000000   383.254400   0.00000000         0.00
   CG311   CG2R51   NG2R52     5   122.000000   383.254400   0.00000000         0.00
   CG311   CG2R51   NG2RC0     5   126.700000   502.080000   0.00000000         0.00
   CG311   CG2R51   OG2R50     5   114.160000   383.087040   0.00000000         0.00
   CG311   CG2R51   SG2R50     5   123.700000   313.381600   0.00000000         0.00
   CG312   CG2R51   NG2R50     5   117.189200   313.967360   0.00000000         0.00
   CG314   CG2R51   NG2R51     5   120.917600   212.212480   0.00000000         0.00
   CG314   CG2R51   OG2R50     5   107.352500   221.919360   0.00000000         0.00
   CG314   CG2R51   OG3C51     5   113.970000   326.435680   0.00000000         0.00
   CG314   CG2R51   SG2R50     5   129.524700   147.109440   0.00000000         0.00
   CG321   CG2R51   CG3C50     5   121.140000   419.738880   0.00000000         0.00
   CG321   CG2R51   CG3C52     5   119.830000   379.488800   0.00000000         0.00
   CG321   CG2R51   NG2R50     5   120.000000   383.254400   0.00000000         0.00
   CG321   CG2R51   NG2R51     5   124.000000   383.254400   0.00000000         0.00
   CG321   CG2R51   NG2R52     5   122.000000   383.254400   0.00000000         0.00
   CG321   CG2R51   NG2RC0     5   126.700000   502.080000   0.00000000         0.00
   CG321   CG2R51   OG2R50     5   114.160000   383.087040   0.00000000         0.00
   CG321   CG2R51   SG2R50     5   123.700000   313.381600   0.00000000         0.00
   CG324   CG2R51   NG2R50     5   122.377900   200.748320   0.00000000         0.00
   CG324   CG2R51   NG2R51     5   132.224100   150.038240   0.00000000         0.00
   CG324   CG2R51   NG2R52     5   116.705700   215.308640   0.00000000         0.00
   CG324   CG2R51   NG2RC0     5   120.146500   147.611520   0.00000000         0.00
   CG324   CG2R51   SG2R50     5   127.883200   114.976320   0.00000000         0.00
   CG331   CG2R51   CG3C50     5   119.830000   379.488800   0.00000000         0.00
   CG331   CG2R51   CG3C51     5   119.830000   379.488800   0.00000000         0.00
   CG331   CG2R51   CG3C52     5   119.830000   379.488800   0.00000000         0.00
   CG331   CG2R51   CG3C54     5   125.001000   242.588320   0.00000000         0.00
   CG331   CG2R51   NG2R50     5   120.000000   383.254400   0.00000000         0.00
   CG331   CG2R51   NG2R51     5   124.000000   383.254400   0.00000000         0.00
   CG331   CG2R51   NG2R52     5   122.000000   383.254400   0.00000000         0.00
   CG331   CG2R51   NG2RC0     5   126.700000   502.080000   0.00000000         0.00
   CG331   CG2R51   NG3C51     5   117.733800   278.654400   0.00000000         0.00
   CG331   CG2R51    NG3P1     5   112.516800   226.270720   0.00000000         0.00
   CG331   CG2R51   OG2R50     5   114.160000   383.087040   0.00000000         0.00
   CG331   CG2R51   OG3C51     5   111.070000   380.911360   0.00000000         0.00
   CG331   CG2R51   SG2R50     5   123.700000   313.381600   0.00000000         0.00
  CG3C41   CG2R51   NG2R51     5   124.000000   383.254400   0.00000000         0.00
  CG3C50   CG2R51   NG2R50     5   130.960600    83.680000   0.00000000         0.00
  CG3C50   CG2R51   NG2R51     5   106.252800    89.621280   0.00000000         0.00
  CG3C50   CG2R51    HGR51     5   124.600000   242.672000   0.00000000         0.00
  CG3C51   CG2R51   NG2R51     5   124.757800  1778.200000   0.00000000         0.00
  CG3C51   CG2R51    OG311     5   108.411500   331.540160   0.00000000         0.00
  CG3C51   CG2R51    HGR51     5   124.600000   242.672000   0.00000000         0.00
  CG3C52   CG2R51   CG3RC1     5   111.529500   699.481120   0.00000000         0.00
  CG3C52   CG2R51    NG2D1     5   120.397400   408.525760   0.00000000         0.00
  CG3C52   CG2R51   NG2R50     5   128.271100  1072.526560   0.00000000         0.00
  CG3C52   CG2R51   NG2R51     5   116.865700   771.194880   0.00000000         0.00
  CG3C52   CG2R51   NG2RC0     5   123.469600   383.840160   0.00000000         0.00
  CG3C52   CG2R51    NG2S1     5   111.475900   359.907680   0.00000000         0.00
  CG3C52   CG2R51   OG2R50     5   123.122100  2511.989920   0.00000000         0.00
  CG3C52   CG2R51    OG311     5   112.278500   285.767200   0.00000000         0.00
  CG3C52   CG2R51    OG312     5   131.803300   304.427840   0.00000000         0.00
  CG3C52   CG2R51   SG2R50     5   124.404600  1127.169600   0.00000000         0.00
  CG3C52   CG2R51    SG311     5   111.168900   338.652960   0.00000000         0.00
  CG3C52   CG2R51    HGR51     5   124.600000   242.672000   0.00000000         0.00
  CG3C53   CG2R51    HGR51     5   124.600000   108.784000   0.00000000         0.00
  CG3C54   CG2R51   NG2R50     5   124.239900   392.459200   0.00000000         0.00
  CG3C54   CG2R51   SG2R50     5   118.209700   223.844000   0.00000000         0.00
  CG3C54   CG2R51    HGR51     5   124.600000   108.784000   0.00000000         0.00
  CG3RC1   CG2R51    NG2D1     5   125.299900   265.935040   0.00000000         0.00
  CG3RC1   CG2R51    HGR51     5   119.894400   215.308640   0.00000000         0.00
   NG2O1   CG2R51   OG2R50     5    95.952900   359.656640   0.00000000         0.00
  NG2R50   CG2R51   NG2R51     5   117.935400  1568.246880   0.00000000         0.00
  NG2R50   CG2R51    OG311     5   125.217900   666.762240   0.00000000         0.00
  NG2R50   CG2R51    HGR52     5   120.000000   209.200000   0.21400000     16736.00
  NG2R51   CG2R51   NG2R61     5   109.334600   371.371840   0.00000000         0.00
  NG2R51   CG2R51   OG2R50     5    91.305400   882.405600   0.00000000         0.00
  NG2R51   CG2R51    OG311     5   114.680000   308.528160   0.00000000         0.00
  NG2R51   CG2R51    OG312     5   121.800000   382.668640   0.00000000         0.00
  NG2R51   CG2R51   OG3C51     5    89.465100   688.435360   0.00000000         0.00
  NG2R51   CG2R51   SG2R50     5    93.369400   636.302720   0.00000000         0.00
  NG2R51   CG2R51    SG3O2     5   119.935900   348.359840   0.00000000         0.00
  NG2R51   CG2R51    HGR52     5   124.000000   209.200000   0.21400000     16736.00
  NG2R52   CG2R51   SG2R50     5   127.132400  1564.313920   0.00000000         0.00
  NG2R52   CG2R51    HGR52     5   122.000000   184.096000   0.21800000     12552.00
  NG2R53   CG2R51    HGR52     5   124.000000   209.200000   0.21400000     16736.00
  NG2R57   CG2R51    HGR52     5   124.000000   209.200000   0.21400000     16736.00
  NG2RC0   CG2R51     FGR1     5   115.343800   499.653280   0.00000000         0.00
  NG2RC0   CG2R51    HGR52     5   121.800000   259.408000   0.00000000         0.00
   NG321   CG2R51    NG3P2     5   127.751300   598.563040   0.00000000         0.00
  NG3C51   CG2R51    HGR52     5   118.200000   292.880000   0.00000000         0.00
   NG3P2   CG2R51    HGR52     5   119.000000   292.880000   0.00000000         0.00
  OG2R50   CG2R51    HGR52     5   118.300000   418.400000   0.00000000         0.00
  OG3C51   CG2R51    HGR52     5   116.800000   326.352000   0.00000000         0.00
  SG2R50   CG2R51   SG2R50     5   115.659900   832.364960   0.00000000         0.00
  SG2R50   CG2R51    SG3O2     5   122.000000   225.936000   0.00000000         0.00
  SG2R50   CG2R51    HGR52     5   121.000000   376.560000   0.00000000         0.00
   SG3O2   CG2R51    HGR52     5   127.549700   261.500000   0.00000000         0.00
  CG25C1   CG2R52    CG331     5   130.000000   267.776000   0.00000000         0.00
  CG25C1   CG2R52   NG2R50     5   110.500000   920.480000   0.00000000         0.00
  CG25C2   CG2R52    CG331     5   130.000000   267.776000   0.00000000         0.00
  CG25C2   CG2R52   NG2R50     5   110.500000   920.480000   0.00000000         0.00
  CG2DC1   CG2R52   CG2R51     5   154.350000   291.875840   0.00000000         0.00
  CG2DC1   CG2R52   CG2R52     5   154.350000   291.875840   0.00000000         0.00
  CG2DC1   CG2R52   NG2R50     5   153.480000   292.880000   0.25191000     16342.70
  CG2DC2   CG2R52   CG2R51     5   154.350000   291.875840   0.00000000         0.00
  CG2DC2   CG2R52   CG2R52     5   154.350000   291.875840   0.00000000         0.00
  CG2DC2   CG2R52   NG2R50     5   153.480000   292.880000   0.25191000     16342.70
   CG2O1   CG2R52   CG2R51     5   130.000000   292.880000   0.00000000         0.00
   CG2O1   CG2R52   NG2R50     5   124.200900   259.575360   0.00000000         0.00
   CG2O2   CG2R52   CG2R51     5   130.000000   292.880000   0.00000000         0.00
   CG2O2   CG2R52   CG2RC0     5   130.000000   292.880000   0.00000000         0.00
   CG2O2   CG2R52   NG2R50     5   112.710900   153.469120   0.00000000         0.00
   CG2O3   CG2R52   CG2R51     5   115.062200    54.559360   0.00000000         0.00
   CG2O3   CG2R52   CG2RC0     5   141.499200   123.846400   0.00000000         0.00
   CG2O3   CG2R52   NG2R50     5   113.589900   139.661920   0.00000000         0.00
   CG2O4   CG2R52   CG2R51     5   130.000000   292.880000   0.00000000         0.00
   CG2O4   CG2R52   NG2R50     5   120.071600   292.963680   0.00000000         0.00
   CG2O5   CG2R52   CG2R51     5   130.000000   292.880000   0.00000000         0.00
   CG2O5   CG2R52   NG2R50     5   117.891600   312.210080   0.00000000         0.00
  CG2R51   CG2R52   CG2R61     5   130.150100   198.070560   0.00000000         0.00
  CG2R51   CG2R52   CG2R62     5   132.704500   163.761760   0.00000000         0.00
  CG2R51   CG2R52    CG301     5   130.000000   267.776000   0.00000000         0.00
  CG2R51   CG2R52    CG302     5   131.294400   200.748320   0.00000000         0.00
  CG2R51   CG2R52    CG311     5   130.000000   267.776000   0.00000000         0.00
  CG2R51   CG2R52    CG312     5   129.032300   196.648000   0.00000000         0.00
  CG2R51   CG2R52    CG314     5   131.250000   410.366720   0.00000000         0.00
  CG2R51   CG2R52    CG321     5   130.000000   267.776000   0.00000000         0.00
  CG2R51   CG2R52    CG331     5   130.490700   248.613280   0.00000000         0.00
  CG2R51   CG2R52   CG3C31     5   130.000000   267.776000   0.00000000         0.00
  CG2R51   CG2R52   CG3C52     5   101.750900  1649.500160   0.00000000         0.00
  CG2R51   CG2R52   NG2R50     5   110.500000   920.480000   0.00000000         0.00
  CG2R51   CG2R52   NG2R52     5   110.000000  1012.528000   0.00000000         0.00
  CG2R51   CG2R52    HGR52     5   126.500000   267.776000   0.00000000         0.00
  CG2R52   CG2R52   CG2R61     5   131.796000   178.322080   0.00000000         0.00
  CG2R52   CG2R52    CG311     5   130.000000   267.776000   0.00000000         0.00
  CG2R52   CG2R52    CG321     5   130.000000   267.776000   0.00000000         0.00
  CG2R52   CG2R52    CG331     5   130.000000   267.776000   0.00000000         0.00
  CG2R52   CG2R52   NG2R50     5   106.000000   585.760000   0.00000000         0.00
  CG2R52   CG2R52    HGR52     5   131.000000   251.040000   0.00000000         0.00
  CG2R57   CG2R52    CG331     5   130.000000   267.776000   0.00000000         0.00
  CG2R57   CG2R52   NG2R50     5   110.500000   920.480000   0.00000000         0.00
  CG2R61   CG2R52   CG2RC0     5   116.991900    56.651360   0.00000000         0.00
  CG2R61   CG2R52   NG2R50     5   120.199200   335.305760   0.00000000         0.00
  CG2R62   CG2R52   NG2R50     5   121.058700   289.198080   0.00000000         0.00
  CG2RC0   CG2R52    CG331     5   130.000000   267.776000   0.00000000         0.00
  CG2RC0   CG2R52   NG2R50     5   110.400000  1255.200000   0.00000000         0.00
  CG2RC0   CG2R52    OG301     5   103.142800   416.726400   0.00000000         0.00
  CG2RC0   CG2R52    HGR52     5   126.600000   267.776000   0.00000000         0.00
   CG301   CG2R52   NG2R50     5   120.000000   376.560000   0.00000000         0.00
   CG302   CG2R52   NG2R50     5   115.921800   200.915680   0.00000000         0.00
   CG311   CG2R52   NG2R50     5   120.000000   376.560000   0.00000000         0.00
   CG312   CG2R52   NG2R50     5   111.055500   244.345600   0.00000000         0.00
   CG314   CG2R52   NG2R50     5   114.711200   315.138880   0.00000000         0.00
   CG321   CG2R52   CG3RC1     5   119.830000   379.488800   0.00000000         0.00
   CG321   CG2R52   NG2R50     5   120.000000   376.560000   0.00000000         0.00
   CG331   CG2R52   CG3C41     5   125.603900   266.102400   0.00000000         0.00
   CG331   CG2R52   CG3C50     5   119.830000   379.488800   0.00000000         0.00
   CG331   CG2R52   CG3C51     5   119.830000   379.488800   0.00000000         0.00
   CG331   CG2R52   CG3C52     5   119.830000   379.488800   0.00000000         0.00
   CG331   CG2R52   CG3C54     5   123.006900   348.610880   0.00000000         0.00
   CG331   CG2R52   NG2R50     5   123.420800   345.933120   0.00000000         0.00
  CG3C31   CG2R52   NG2R50     5   120.000000   376.560000   0.00000000         0.00
  CG3C41   CG2R52   NG2R50     5   120.000000   376.560000   0.00000000         0.00
  CG3C50   CG2R52   NG2R50     5   112.000000  1422.560000   0.00000000         0.00
  CG3C51   CG2R52   NG2R50     5   112.000000  1422.560000   0.00000000         0.00
  CG3C52   CG2R52   NG2R50     5   112.000000  1422.560000   0.00000000         0.00
  CG3C52   CG2R52    SG3O3     5   108.213300   329.280800   0.00000000         0.00
  CG3C52   CG2R52    HGR52     5   125.000000   393.296000   0.00000000         0.00
  CG3C54   CG2R52   NG2R50     5   112.145300   568.772960   0.00000000         0.00
  CG3RC1   CG2R52   NG2R50     5   112.000000  1422.560000   0.00000000         0.00
  NG2R50   CG2R52    OG301     5   103.346600   430.449920   0.00000000         0.00
  NG2R50   CG2R52    HGR52     5   123.000000   267.776000   0.00000000         0.00
  NG2R52   CG2R52    HGR52     5   123.500000   292.880000   0.00000000         0.00
   SG3O3   CG2R52    HGR52     5   125.685600   230.705760   0.00000000         0.00
  CG251O   CG2R53   NG2R51     5   107.000000   418.400000   0.00000000         0.00
  CG251O   CG2R53   NG2R53     5   108.500000   460.240000   0.00000000         0.00
  CG251O   CG2R53    OG2D1     5   124.500000   460.240000   0.00000000         0.00
  CG251O   CG2R53   OG3C51     5   103.512700   283.842560   0.00000000         0.00
  CG252O   CG2R53   NG2R51     5   107.000000   418.400000   0.00000000         0.00
  CG252O   CG2R53   NG2R53     5   108.500000   460.240000   0.00000000         0.00
  CG252O   CG2R53    OG2D1     5   124.500000   460.240000   0.00000000         0.00
  CG252O   CG2R53   OG3C51     5   103.512700   283.842560   0.00000000         0.00
  CG25C1   CG2R53   NG2R51     5   107.000000   418.400000   0.00000000         0.00
  CG25C1   CG2R53   NG2R53     5   108.500000   460.240000   0.00000000         0.00
  CG25C1   CG2R53    OG2D1     5   125.500000   460.240000   0.00000000         0.00
  CG25C1   CG2R53   OG3C51     5   105.000000   548.104000   0.00000000         0.00
  CG25C2   CG2R53   NG2R51     5   107.000000   418.400000   0.00000000         0.00
  CG25C2   CG2R53   NG2R53     5   108.500000   460.240000   0.00000000         0.00
  CG25C2   CG2R53    OG2D1     5   125.500000   460.240000   0.00000000         0.00
  CG25C2   CG2R53   OG3C51     5   105.000000   548.104000   0.00000000         0.00
  CG2DC1   CG2R53   NG2R50     5   135.820000   302.335840   0.00000000         0.00
  CG2DC1   CG2R53   NG2R51     5   123.390000   293.047360   0.00000000         0.00
  CG2DC1   CG2R53   NG2R52     5   143.787900   365.597920   0.00000000         0.00
  CG2DC1   CG2R53   SG2R50     5   135.672500   302.252160   0.00000000         0.00
  CG2DC2   CG2R53   NG2R50     5   135.820000   302.335840   0.00000000         0.00
  CG2DC2   CG2R53   NG2R51     5   123.390000   293.047360   0.00000000         0.00
  CG2DC2   CG2R53   NG2R52     5   143.787900   365.597920   0.00000000         0.00
  CG2DC2   CG2R53   SG2R50     5   135.672500   302.252160   0.00000000         0.00
   CG2N2   CG2R53   NG2R50     5   119.988300   263.424640   0.00000000         0.00
   CG2N2   CG2R53   NG2R51     5   125.428700    57.404480   0.00000000         0.00
   CG2O2   CG2R53   NG2R50     5   116.739300   345.180000   0.00000000         0.00
   CG2O2   CG2R53   SG2R50     5   120.781100   156.397920   0.00000000         0.00
   CG2O3   CG2R53   NG2R50     5   114.402000   211.543040   0.00000000         0.00
   CG2O3   CG2R53   NG2R51     5   107.608000   234.638720   0.00000000         0.00
   CG2O3   CG2R53   SG2R50     5    96.990700   282.503680   0.00000000         0.00
   CG2O4   CG2R53   NG2R50     5   139.699200   341.916480   0.00000000         0.00
   CG2O4   CG2R53   NG2RC0     5   139.666400   370.618720   0.00000000         0.00
   CG2O5   CG2R53   NG2R50     5   125.295900   296.310880   0.00000000         0.00
   CG2O5   CG2R53   SG2R50     5   122.643600   245.349760   0.00000000         0.00
  CG2R51   CG2R53   NG2R50     5   124.338800   720.735840   0.00000000         0.00
  CG2R51   CG2R53   NG2R51     5   107.000000   418.400000   0.00000000         0.00
  CG2R51   CG2R53   NG2R52     5   156.111300   125.017920   0.00000000         0.00
  CG2R51   CG2R53   NG2R53     5   108.500000   460.240000   0.00000000         0.00
  CG2R51   CG2R53    NG2S1     5   121.681900   369.447200   0.00000000         0.00
  CG2R51   CG2R53    OG2D1     5   127.500000   508.774400   0.00000000         0.00
  CG2R51   CG2R53   OG2R50     5   110.190900   641.658240   0.00000000         0.00
  CG2R51   CG2R53   OG3C51     5   105.000000   548.104000   0.00000000         0.00
  CG2R51   CG2R53   SG2R50     5    91.107300   480.323200   0.00000000         0.00
  CG2R53   CG2R53   NG2R50     5   120.853000   790.608640   0.00000000         0.00
  CG2R53   CG2R53   NG2R53     5   103.233100   552.455360   0.00000000         0.00
  CG2R53   CG2R53    NG311     5   130.987300   237.400160   0.00000000         0.00
  CG2R53   CG2R53    NG3N1     5   121.749600     8.368000   0.00000000         0.00
  CG2R53   CG2R53    OG2D1     5   113.756000   379.907200   0.00000000         0.00
  CG2R53   CG2R53   OG3C51     5   101.434600   702.493600   0.00000000         0.00
  CG2R61   CG2R53   NG2R50     5   124.500000   209.200000   0.00000000         0.00
  CG2R61   CG2R53   NG2R51     5   120.402800   205.350720   0.00000000         0.00
  CG2R61   CG2R53   NG2R52     5   126.593400   236.396000   0.00000000         0.00
  CG2R61   CG2R53   NG2RC0     5   125.220000   285.599840   0.00000000         0.00
  CG2R61   CG2R53   SG2R50     5   118.300000   209.200000   0.00000000         0.00
  CG2R62   CG2R53   NG2R50     5   124.500000   209.200000   0.00000000         0.00
  CG2R62   CG2R53   SG2R50     5   118.300000   209.200000   0.00000000         0.00
  CG2R64   CG2R53   NG2R50     5   124.500000   209.200000   0.00000000         0.00
  CG2RC0   CG2R53    NG2O1     5   126.965900   166.355840   0.00000000         0.00
  CG2RC0   CG2R53   NG2R50     5   116.323700   596.303680   0.00000000         0.00
  CG2RC0   CG2R53   NG2R51     5   107.000000   418.400000   0.00000000         0.00
  CG2RC0   CG2R53    OG2D1     5   127.500000   508.774400   0.00000000         0.00
  CG2RC0   CG2R53   OG3C51     5   105.000000   548.104000   0.00000000         0.00
  CG2RC7   CG2R53    NG2D1     5   119.645400   373.045440   0.00000000         0.00
  CG2RC7   CG2R53   NG2R50     5   113.790800   632.704480   0.00000000         0.00
   CG301   CG2R53   NG2R50     5   123.000000   383.254400   0.00000000         0.00
   CG301   CG2R53   NG2R51     5   120.000000   383.254400   0.00000000         0.00
   CG301   CG2R53   NG2R52     5   148.170000   382.501280   0.00000000         0.00
   CG301   CG2R53   SG2R50     5   135.344200   253.550400   0.00000000         0.00
   CG302   CG2R53   NG2R50     5   116.527800   248.529600   0.00000000         0.00
   CG302   CG2R53   SG2R50     5   117.146600   217.651680   0.00000000         0.00
   CG311   CG2R53   NG2R50     5   123.000000   383.254400   0.00000000         0.00
   CG311   CG2R53   NG2R51     5   120.000000   383.254400   0.00000000         0.00
   CG311   CG2R53   NG2R52     5   148.170000   382.501280   0.00000000         0.00
   CG311   CG2R53   SG2R50     5   105.398400   129.704000   0.00000000         0.00
   CG314   CG2R53   NG2R50     5   117.893300   373.965920   0.00000000         0.00
   CG314   CG2R53   SG2R50     5   136.218600   209.032640   0.00000000         0.00
   CG321   CG2R53   NG2R50     5   123.000000   383.254400   0.00000000         0.00
   CG321   CG2R53   NG2R51     5   120.000000   383.254400   0.00000000         0.00
   CG321   CG2R53   NG2R52     5   148.170000   382.501280   0.00000000         0.00
   CG321   CG2R53   NG2RC0     5   120.000000   383.254400   0.00000000         0.00
   CG321   CG2R53   OG2R50     5   118.205500   356.811520   0.00000000         0.00
   CG321   CG2R53   SG2R50     5   112.374100   289.783840   0.00000000         0.00
   CG324   CG2R53   NG2R50     5   113.830900   535.384640   0.00000000         0.00
   CG324   CG2R53   NG2R51     5   117.074400   235.224480   0.00000000         0.00
   CG324   CG2R53   SG2R50     5   134.947400   204.346560   0.00000000         0.00
   CG331   CG2R53   NG2R50     5   123.000000   383.254400   0.00000000         0.00
   CG331   CG2R53   NG2R51     5   120.000000   383.254400   0.00000000         0.00
   CG331   CG2R53   NG2R52     5   148.170000   382.501280   0.00000000         0.00
   CG331   CG2R53   NG3C51     5   114.306200   310.787520   0.00000000         0.00
   CG331   CG2R53   OG2R50     5   111.028600   385.346400   0.00000000         0.00
   CG331   CG2R53   OG3C51     5   110.970500   455.804960   0.00000000         0.00
   CG331   CG2R53   SG2R50     5   119.808700   235.224480   0.00000000         0.00
  CG3C31   CG2R53   NG2R50     5   123.000000   383.254400   0.00000000         0.00
  CG3C31   CG2R53   NG2R52     5   148.170000   382.501280   0.00000000         0.00
  CG3C31   CG2R53   NG2R53     5   114.479000   672.201440   0.00000000         0.00
  CG3C31   CG2R53    OG2D1     5   126.745500   409.362560   0.00000000         0.00
  CG3C31   CG2R53   SG2R50     5   127.380500   239.743200   0.00000000         0.00
  CG3C41   CG2R53   NG2R43     5   104.500000  1004.160000   0.00000000         0.00
  CG3C41   CG2R53   NG2R50     5   126.275000   400.827200   0.00000000         0.00
  CG3C41   CG2R53   NG2R51     5   117.667300   322.251680   0.00000000         0.00
  CG3C41   CG2R53   NG2R52     5   142.377100   332.460640   0.00000000         0.00
  CG3C41   CG2R53   NG2R53     5   119.779500   843.912800   0.00000000         0.00
  CG3C41   CG2R53    OG2D1     5   135.700000   502.080000   0.00000000         0.00
  CG3C41   CG2R53   SG2R50     5   133.049100   252.462560   0.00000000         0.00
  CG3C50   CG2R53   NG2R50     5   110.984800   745.421440   0.00000000         0.00
  CG3C50   CG2R53   NG2R53     5   106.000000   669.440000   0.00000000         0.00
  CG3C50   CG2R53    OG2D1     5   126.200000   460.240000   0.00000000         0.00
  CG3C50   CG2R53   OG3C51     5   105.800000   753.120000   0.00000000         0.00
  CG3C51   CG2R53   NG2R53     5   105.500000  1004.160000   0.00000000         0.00
  CG3C51   CG2R53    OG2D1     5   126.700000   543.920000   0.00000000         0.00
  CG3C51   CG2R53   OG3C51     5   105.800000   753.120000   0.00000000         0.00
  CG3C51   CG2R53    SG2D1     5   125.410500   736.635040   0.00000000         0.00
  CG3C51   CG2R53    SG311     5   115.843400   979.139680   0.00000000         0.00
  CG3C52   CG2R53   NG2R50     5   107.434700   702.577280   0.00000000         0.00
  CG3C52   CG2R53   NG2R52     5   132.878500   401.245600   0.00000000         0.00
  CG3C52   CG2R53   NG2R53     5   105.500000  1004.160000   0.00000000         0.00
  CG3C52   CG2R53   NG3C51     5   105.898300   739.061760   0.00000000         0.00
  CG3C52   CG2R53    OG2D1     5   126.700000   543.920000   0.00000000         0.00
  CG3C52   CG2R53   OG3C51     5   105.800000   753.120000   0.00000000         0.00
  CG3C52   CG2R53    SG2D1     5   126.456300   439.989440   0.00000000         0.00
  CG3C52   CG2R53    SG311     5   104.762000   515.719840   0.00000000         0.00
  CG3C53   CG2R53   NG2R57     5   114.011500   528.522880   0.00000000         0.00
  CG3C53   CG2R53    OG2D1     5   123.279200   537.895040   0.00000000         0.00
  CG3RC1   CG2R53   NG2R53     5   111.217700   386.099520   0.00000000         0.00
  CG3RC1   CG2R53    OG2D1     5   132.732800   434.299200   0.00000000         0.00
   NG2D1   CG2R53   NG2R50     5   127.741500   551.032800   0.00000000         0.00
   NG2O1   CG2R53   NG2R50     5   106.836800   277.148160   0.00000000         0.00
   NG2P1   CG2R53   NG2R50     5   131.037200   485.595040   0.00000000         0.00
   NG2P1   CG2R53   NG2R52     5   113.586400   256.813920   0.00000000         0.00
  NG2R43   CG2R53    OG2D1     5   134.300000   502.080000   0.00000000         0.00
  NG2R50   CG2R53   NG2R50     5   111.000000   836.800000   0.00000000         0.00
  NG2R50   CG2R53   NG2R51     5   113.000000   836.800000   0.00000000         0.00
  NG2R50   CG2R53   NG2R52     5   117.269200   479.319040   0.00000000         0.00
  NG2R50   CG2R53   NG2R57     5   113.000000   836.800000   0.00000000         0.00
  NG2R50   CG2R53   NG2R61     5   119.703200   422.835040   0.00000000         0.00
  NG2R50   CG2R53   NG2RC0     5   113.000000   836.800000   0.00000000         0.00
  NG2R50   CG2R53    NG2S1     5   124.071900   499.653280   0.00000000         0.00
  NG2R50   CG2R53    NG301     5   127.116600   477.729120   0.00000000         0.00
  NG2R50   CG2R53    NG311     5   127.693700   486.013440   0.00000000         0.00
  NG2R50   CG2R53    NG321     5   133.953700   531.619040   0.00000000         0.00
  NG2R50   CG2R53   NG3C51     5   117.400000  1338.880000   0.00000000         0.00
  NG2R50   CG2R53    NG3N1     5   151.470900   352.041760   0.00000000         0.00
  NG2R50   CG2R53    NG3P0     5    97.907000   646.595360   0.00000000         0.00
  NG2R50   CG2R53    OG2D1     5   133.885700   591.366560   0.00000000         0.00
  NG2R50   CG2R53   OG2R50     5   115.700000  1004.160000   0.00000000         0.00
  NG2R50   CG2R53    OG301     5   122.254800   451.118880   0.00000000         0.00
  NG2R50   CG2R53    OG312     5   147.992400   685.673920   0.00000000         0.00
  NG2R50   CG2R53   OG3C51     5   115.360200   512.372640   0.00000000         0.00
  NG2R50   CG2R53    SG2D1     5   132.945000   356.309440   0.00000000         0.00
  NG2R50   CG2R53   SG2R50     5   117.200000   920.480000   0.00000000         0.00
  NG2R50   CG2R53    SG311     5   123.378500   827.929920   0.00000000         0.00
  NG2R50   CG2R53    SG3O2     5   120.956000   205.685440   0.00000000         0.00
  NG2R50   CG2R53     FGR1     5   118.840000   553.710560   0.00000000         0.00
  NG2R50   CG2R53    HGR52     5   124.800000   326.352000   0.00000000         0.00
  NG2R51   CG2R53   NG2R51     5    90.739700   918.973760   0.00000000         0.00
  NG2R51   CG2R53   NG2RC0     5    92.485100   753.287360   0.00000000         0.00
  NG2R51   CG2R53    NG301     5   114.365400   367.857280   0.00000000         0.00
  NG2R51   CG2R53    NG311     5   117.618300   490.197440   0.00000000         0.00
  NG2R51   CG2R53   NG3C51     5    99.272900  1006.503040   0.00000000         0.00
  NG2R51   CG2R53    OG2D1     5   127.500000   585.760000   0.00000000         0.00
  NG2R51   CG2R53   OG3C51     5   108.858100   538.062400   0.00000000         0.00
  NG2R51   CG2R53    SG2D1     5   127.000000   376.560000   0.00000000         0.00
  NG2R51   CG2R53   SG2R50     5    90.010400   327.774560   0.00000000         0.00
  NG2R51   CG2R53    SG311     5   109.000000   585.760000   0.00000000         0.00
  NG2R51   CG2R53     FGR1     5   113.340000   559.735520   0.00000000         0.00
  NG2R51   CG2R53    HGR52     5   122.200000   334.720000   0.00000000         0.00
  NG2R52   CG2R53   NG2R52     5   108.000000  1213.360000   0.00000000         0.00
  NG2R52   CG2R53   SG2R50     5   126.609900   440.993600   0.00000000         0.00
  NG2R52   CG2R53     FGR1     5   125.570000   478.565920   0.00000000         0.00
  NG2R52   CG2R53    HGR53     5   126.000000   267.776000   0.21400000     20920.00
  NG2R53   CG2R53   NG2R53     5   104.400000   627.600000   0.00000000         0.00
  NG2R53   CG2R53    OG2D1     5   127.800000   543.920000   0.00000000         0.00
  NG2R53   CG2R53   OG3C51     5   105.189800   715.966080   0.00000000         0.00
  NG2R53   CG2R53    SG2D1     5   127.000000   376.560000   0.00000000         0.00
  NG2R53   CG2R53    SG311     5   109.000000   585.760000   0.00000000         0.00
  NG2R57   CG2R53    OG2D1     5   127.500000   585.760000   0.00000000         0.00
  NG2R57   CG2R53    HGR52     5   122.200000   334.720000   0.00000000         0.00
  NG2R61   CG2R53   SG2R50     5   118.439800   340.828640   0.00000000         0.00
  NG2RC0   CG2R53    OG2D1     5   127.500000   585.760000   0.00000000         0.00
  NG2RC0   CG2R53    HGR52     5   122.200000   334.720000   0.00000000         0.00
   NG301   CG2R53   SG2R50     5   121.744200   307.105600   0.00000000         0.00
   NG311   CG2R53   SG2R50     5   126.448300   394.300160   0.00000000         0.00
   NG321   CG2R53   SG2R50     5   121.413600   474.298240   0.00000000         0.00
  NG3C51   CG2R53    OG312     5   144.935700   537.727680   0.00000000         0.00
  NG3C51   CG2R53    HGR52     5   117.800000   267.776000   0.00000000         0.00
   NG3P0   CG2R53    SG2D1     5   134.113100   472.206240   0.00000000         0.00
   OG2D1   CG2R53   OG2R50     5   113.107200   565.593120   0.00000000         0.00
   OG2D1   CG2R53   OG3C51     5   127.500000   535.552000   0.00000000         0.00
   OG2D1   CG2R53   SG2R50     5   117.374600   478.063840   0.00000000         0.00
   OG2D1   CG2R53    SG311     5   125.000000   460.240000   0.00000000         0.00
  OG2R50   CG2R53    HGR52     5   119.500000   209.200000   0.21400000     16736.00
   OG301   CG2R53   SG2R50     5   114.010500   450.867840   0.00000000         0.00
   SG2D1   CG2R53    SG311     5   124.000000   376.560000   0.00000000         0.00
  SG2R50   CG2R53    SG3O2     5   121.634000   202.589280   0.00000000         0.00
  SG2R50   CG2R53     FGR1     5   110.857700   415.052800   0.00000000         0.00
  SG2R50   CG2R53    HGR52     5   118.000000   251.040000   0.00000000         0.00
  CG2R51   CG2R57   CG2R51     5   107.200000   753.120000   0.00000000         0.00
  CG2R51   CG2R57   CG2R52     5   107.200000   753.120000   0.00000000         0.00
  CG2R51   CG2R57   CG2R57     5   126.400000   276.144000   0.00000000         0.00
  CG2R51   CG2R57   CG2RC0     5   107.200000   753.120000   0.00000000         0.00
  CG2R51   CG2R57   CG3C51     5   130.596100   240.663680   0.00000000         0.00
  CG2R51   CG2R57   CG3C52     5   108.646300   452.374080   0.00000000         0.00
  CG2R51   CG2R57   CG3C53     5   115.996000   258.571200   0.00000000         0.00
  CG2R51   CG2R57   CG3RC1     5   140.101700   449.612640   0.00000000         0.00
  CG2R51   CG2R57   NG2R50     5   119.673900   461.495200   0.00000000         0.00
  CG2R51   CG2R57   NG2R51     5   108.276000   584.086400   0.00000000         0.00
  CG2R51   CG2R57   NG2R52     5   105.852400   467.938560   0.00000000         0.00
  CG2R51   CG2R57   NG2R57     5   126.400000   355.640000   0.00000000         0.00
  CG2R51   CG2R57   NG3C51     5   113.707900   610.027200   0.00000000         0.00
  CG2R51   CG2R57   OG2R50     5   113.619700   575.634720   0.00000000         0.00
  CG2R51   CG2R57   SG2R50     5   113.943100   523.669440   0.00000000         0.00
  CG2R52   CG2R57   CG2R57     5   126.400000   276.144000   0.00000000         0.00
  CG2R52   CG2R57   CG3C53     5   108.748400   255.140320   0.00000000         0.00
  CG2R52   CG2R57   NG2R50     5   110.616100   461.160480   0.00000000         0.00
  CG2R52   CG2R57   NG2R57     5   126.400000   355.640000   0.00000000         0.00
  CG2R57   CG2R57   CG2RC0     5   126.400000   276.144000   0.00000000         0.00
  CG2R57   CG2R57   CG3C52     5   132.693900   208.028480   0.00000000         0.00
  CG2R57   CG2R57   NG2R50     5   125.467700   278.738080   0.00000000         0.00
  CG2R57   CG2R57   NG2R51     5   118.690600   329.531840   0.00000000         0.00
  CG2R57   CG2R57   NG2R52     5   114.277300   325.013120   0.00000000         0.00
  CG2R57   CG2R57   NG2RC0     5   130.548100   348.527200   0.00000000         0.00
  CG2R57   CG2R57   NG3C51     5   114.047500   362.836480   0.00000000         0.00
  CG2R57   CG2R57   OG2R50     5   114.836800   301.499040   0.00000000         0.00
  CG2R57   CG2R57   SG2R50     5   123.928900   213.551360   0.00000000         0.00
  CG2RC0   CG2R57   CG3C51     5   139.649800   227.860640   0.00000000         0.00
  CG2RC0   CG2R57   CG3C53     5   127.516600    69.454400   0.00000000         0.00
  CG2RC0   CG2R57   NG2R50     5   115.245200   514.548320   0.00000000         0.00
  CG3C50   CG2R57   NG2R50     5   111.212600   356.895200   0.00000000         0.00
  CG3C50   CG2R57   SG2R50     5   106.703300   328.527680   0.00000000         0.00
  CG3C51   CG2R57   CG3C52     5   105.647800   123.930080   0.00000000         0.00
  CG3C51   CG2R57   NG2R50     5   130.127700   375.221120   0.00000000         0.00
  CG3C51   CG2R57   NG2R51     5   128.847500   233.969280   0.00000000         0.00
  CG3C51   CG2R57   OG2R50     5   127.782100   241.333120   0.00000000         0.00
  CG3C51   CG2R57   SG2R50     5    98.727100    92.717440   0.00000000         0.00
  CG3C53   CG2R57   NG2R50     5   111.168500   418.985760   0.00000000         0.00
  CG3C53   CG2R57   NG2R51     5   127.174000   201.417760   0.00000000         0.00
  CG3C53   CG2R57   OG2R50     5   105.569300   329.782880   0.00000000         0.00
  CG3RC1   CG2R57   NG2R50     5   117.087400   317.984000   0.00000000         0.00
  CG3RC1   CG2R57   NG2R51     5   117.785200   231.542560   0.00000000         0.00
  CG3RC1   CG2R57   SG2R50     5   112.661600   312.210080   0.00000000         0.00
  NG2R50   CG2R57   NG2R51     5   118.949100   763.245280   0.00000000         0.00
  NG2R50   CG2R57   NG2R57     5   122.374400   467.771200   0.00000000         0.00
  NG2R50   CG2R57   NG2RC0     5   111.418200   860.314080   0.00000000         0.00
  NG2R50   CG2R57   OG2R50     5   115.173900   800.817600   0.00000000         0.00
  NG2R50   CG2R57   SG2R50     5   118.185100   675.213920   0.00000000         0.00
  NG2R50   CG2R57    SG311     5   119.765700   202.840320   0.00000000         0.00
  NG2R51   CG2R57   NG2R57     5   112.059600   288.863360   0.00000000         0.00
  NG2R57   CG2R57   OG2R50     5   113.259300   535.719360   0.00000000         0.00
  NG2R57   CG2R57    SG311     5   116.316200   437.562720   0.00000000         0.00
   CG1N1   CG2R61   CG2R61     5   120.000000   292.880000   0.00000000         0.00
  CG251O   CG2R61   CG2R61     5   120.000000   267.776000   0.00000000         0.00
  CG251O   CG2R61   NG2R61     5   125.513300   164.933280   0.00000000         0.00
  CG252O   CG2R61   CG2R61     5   120.000000   267.776000   0.00000000         0.00
  CG252O   CG2R61   NG2R61     5   125.513300   164.933280   0.00000000         0.00
  CG2D1O   CG2R61   CG2R61     5   120.000000   301.248000   0.00000000         0.00
  CG2D1O   CG2R61   NG2R61     5   127.429000   171.376640   0.00000000         0.00
  CG2D1O   CG2R61   OG3R60     5   114.090100   360.660800   0.00000000         0.00
  CG2D2O   CG2R61   CG2R61     5   120.000000   301.248000   0.00000000         0.00
  CG2D2O   CG2R61   NG2R61     5   127.429000   171.376640   0.00000000         0.00
  CG2D2O   CG2R61   OG3R60     5   114.090100   360.660800   0.00000000         0.00
  CG2DC1   CG2R61   CG2R61     5   120.000000   301.248000   0.00000000         0.00
  CG2DC1   CG2R61   CG2R66     5   120.000000   301.248000   0.00000000         0.00
  CG2DC1   CG2R61   CG2RC0     5   120.000000   301.248000   0.00000000         0.00
  CG2DC1   CG2R61   NG2R60     5   119.714700   391.120320   0.00000000         0.00
  CG2DC1   CG2R61   NG2R61     5   130.587300   426.516960   0.00000000         0.00
  CG2DC1   CG2R61   NG2RC0     5   106.588900   203.844480   0.00000000         0.00
  CG2DC2   CG2R61   CG2R61     5   120.000000   301.248000   0.00000000         0.00
  CG2DC2   CG2R61   CG2R66     5   120.000000   301.248000   0.00000000         0.00
  CG2DC2   CG2R61   CG2RC0     5   120.000000   301.248000   0.00000000         0.00
  CG2DC2   CG2R61   NG2R60     5   119.714700   391.120320   0.00000000         0.00
  CG2DC2   CG2R61   NG2R61     5   130.587300   426.516960   0.00000000         0.00
  CG2DC2   CG2R61   NG2RC0     5   106.588900   203.844480   0.00000000         0.00
   CG2N2   CG2R61   CG2R61     5   120.000000   209.200000   0.00000000         0.00
   CG2N2   CG2R61   CG2R64     5   120.000000   209.200000   0.00000000         0.00
   CG2N2   CG2R61   CG2R66     5   120.000000   209.200000   0.00000000         0.00
   CG2N2   CG2R61   CG2R67     5   120.000000   209.200000   0.00000000         0.00
   CG2N2   CG2R61   CG2RC0     5   120.000000   209.200000   0.00000000         0.00
   CG2N2   CG2R61   NG2R60     5   108.019200   431.705120   0.00000000         0.00
   CG2N2   CG2R61   NG2R62     5    97.572100   329.950240   0.00000000         0.00
   CG2O1   CG2R61   CG2R61     5   119.000000   376.560000   0.00000000         0.00
   CG2O1   CG2R61   CG2R64     5   126.950000   523.083680   0.00000000         0.00
   CG2O1   CG2R61   CG2RC0     5   120.000000   502.080000   0.00000000         0.00
   CG2O1   CG2R61   NG2R60     5   115.900000   583.668000   0.00000000         0.00
   CG2O1   CG2R61   NG2R62     5   115.900000   583.668000   0.00000000         0.00
   CG2O2   CG2R61   CG2R61     5   120.000000   376.560000   0.00000000         0.00
   CG2O2   CG2R61   CG2R62     5   120.000000   376.560000   0.00000000         0.00
   CG2O2   CG2R61   CG2R63     5   126.950000   523.083680   0.00000000         0.00
   CG2O2   CG2R61   CG2RC0     5   120.000000   376.560000   0.00000000         0.00
   CG2O2   CG2R61   NG2R60     5   115.900000   583.668000   0.00000000         0.00
   CG2O2   CG2R61   NG2R62     5   115.900000   583.668000   0.00000000         0.00
   CG2O3   CG2R61   CG2R61     5   119.000000   376.560000   0.00000000         0.00
   CG2O3   CG2R61   CG2R63     5   119.000000   376.560000   0.00000000         0.00
   CG2O3   CG2R61   CG2RC0     5   119.000000   376.560000   0.00000000         0.00
   CG2O3   CG2R61   NG2R62     5   115.900000   583.668000   0.00000000         0.00
   CG2O4   CG2R61   CG2R61     5   119.800000   376.560000   0.00000000         0.00
   CG2O4   CG2R61   CG2R64     5   119.800000   376.560000   0.00000000         0.00
   CG2O4   CG2R61   CG2R66     5   119.800000   376.560000   0.00000000         0.00
   CG2O4   CG2R61   CG2RC0     5   119.800000   376.560000   0.00000000         0.00
   CG2O5   CG2R61   CG2R61     5   120.000000   376.560000   0.00000000         0.00
   CG2O5   CG2R61   CG2R64     5   120.000000   376.560000   0.00000000         0.00
   CG2O5   CG2R61   CG2R67     5   120.000000   376.560000   0.00000000         0.00
   CG2O5   CG2R61   CG2RC0     5   120.000000   376.560000   0.00000000         0.00
   CG2O5   CG2R61   NG2R60     5   115.900000   583.668000   0.00000000         0.00
  CG2R51   CG2R61   CG2R61     5   120.000000   267.776000   0.00000000         0.00
  CG2R51   CG2R61   CG2R62     5   120.000000   267.776000   0.00000000         0.00
  CG2R51   CG2R61   CG2R64     5   120.000000   267.776000   0.00000000         0.00
  CG2R51   CG2R61   CG2R66     5   120.000000   267.776000   0.00000000         0.00
  CG2R51   CG2R61   NG2R60     5   113.623900   450.031040   0.00000000         0.00
  CG2R51   CG2R61   NG2R62     5   112.770600   883.242400   0.00000000         0.00
  CG2R52   CG2R61   CG2R61     5   120.000000   267.776000   0.00000000         0.00
  CG2R52   CG2R61   CG2R64     5   120.000000   267.776000   0.00000000         0.00
  CG2R52   CG2R61   NG2R62     5   111.554400   431.537760   0.00000000         0.00
  CG2R53   CG2R61   CG2R61     5   120.000000   267.776000   0.00000000         0.00
  CG2R53   CG2R61   CG2RC0     5   120.000000   267.776000   0.00000000         0.00
  CG2R53   CG2R61   NG2R60     5   104.501800   296.980320   0.00000000         0.00
  CG2R61   CG2R61   CG2R61     5   120.000000   334.720000   0.24162000     29288.00
  CG2R61   CG2R61   CG2R62     5   119.000000   334.720000   0.24162000     29288.00
  CG2R61   CG2R61   CG2R63     5   120.000000   334.720000   0.24162000     29288.00
  CG2R61   CG2R61   CG2R64     5   115.500000   334.720000   0.24162000     29288.00
  CG2R61   CG2R61   CG2R66     5   119.000000   334.720000   0.24162000     29288.00
  CG2R61   CG2R61   CG2R67     5   120.000000   334.720000   0.00000000         0.00
  CG2R61   CG2R61   CG2R71     5    88.350200   350.451840   0.00000000         0.00
  CG2R61   CG2R61   CG2RC0     5   120.000000   418.400000   0.00000000         0.00
  CG2R61   CG2R61    CG301     5   120.000000   383.254400   0.00000000         0.00
  CG2R61   CG2R61    CG302     5   120.000000   383.254400   0.00000000         0.00
  CG2R61   CG2R61    CG311     5   120.000000   383.254400   0.00000000         0.00
  CG2R61   CG2R61    CG312     5   120.000000   383.254400   0.00000000         0.00
  CG2R61   CG2R61    CG314     5   120.000000   383.254400   0.00000000         0.00
  CG2R61   CG2R61    CG321     5   120.000000   383.254400   0.00000000         0.00
  CG2R61   CG2R61    CG322     5   120.000000   383.254400   0.00000000         0.00
  CG2R61   CG2R61    CG324     5   120.000000   383.254400   0.00000000         0.00
  CG2R61   CG2R61    CG331     5   120.000000   383.254400   0.00000000         0.00
  CG2R61   CG2R61   CG3C31     5   120.431100   277.315520   0.00000000         0.00
  CG2R61   CG2R61   CG3C41     5   120.000000   383.254400   0.00000000         0.00
  CG2R61   CG2R61   CG3C50     5   123.361900   272.462080   0.00000000         0.00
  CG2R61   CG2R61   CG3C51     5   127.441300   390.701920   0.00000000         0.00
  CG2R61   CG2R61   CG3C53     5   120.000000   383.254400   0.00000000         0.00
  CG2R61   CG2R61   CG3RC1     5   116.900000   253.968800   0.00000000         0.00
  CG2R61   CG2R61    NG2D1     5   125.500000   669.440000   0.00000000         0.00
  CG2R61   CG2R61    NG2O1     5   120.000000   167.360000   0.00000000         0.00
  CG2R61   CG2R61    NG2P1     5   121.200000   326.352000   0.21900000     35982.40
  CG2R61   CG2R61   NG2R43     5   120.000000   334.720000   0.24162000     29288.00
  CG2R61   CG2R61   NG2R51     5   121.000000   502.080000   0.00000000         0.00
  CG2R61   CG2R61   NG2R52     5   121.200000   326.352000   0.21900000     35982.40
  CG2R61   CG2R61   NG2R53     5   120.000000   334.720000   0.24162000     29288.00
  CG2R61   CG2R61   NG2R60     5   124.000000   167.360000   0.00000000         0.00
  CG2R61   CG2R61   NG2R61     5   120.000000  1046.000000   0.00000000         0.00
  CG2R61   CG2R61   NG2R62     5   124.000000   167.360000   0.00000000         0.00
  CG2R61   CG2R61   NG2R67     5   120.000000  1046.000000   0.00000000         0.00
  CG2R61   CG2R61   NG2RC0     5   121.400000   836.800000   0.00000000         0.00
  CG2R61   CG2R61    NG2S0     5   120.000000   334.720000   0.24162000     29288.00
  CG2R61   CG2R61    NG2S1     5   120.000000   334.720000   0.24162000     29288.00
  CG2R61   CG2R61    NG2S3     5   121.000000   502.080000   0.00000000         0.00
  CG2R61   CG2R61    NG301     5   120.000000   351.456000   0.00000000         0.00
  CG2R61   CG2R61    NG311     5   120.000000   334.720000   0.00000000         0.00
  CG2R61   CG2R61   NG3C51     5   120.000000   334.720000   0.00000000         0.00
  CG2R61   CG2R61    NG3N1     5   122.000000   401.664000   0.00000000         0.00
  CG2R61   CG2R61    NG3P0     5    82.515500   349.615040   0.00000000         0.00
  CG2R61   CG2R61    NG3P1     5   111.767200   468.189600   0.00000000         0.00
  CG2R61   CG2R61    OG301     5   120.000000   920.480000   0.00000000         0.00
  CG2R61   CG2R61    OG302     5   120.000000   920.480000   0.00000000         0.00
  CG2R61   CG2R61    OG303     5   120.000000   627.600000   0.00000000         0.00
  CG2R61   CG2R61    OG311     5   120.000000   378.233600   0.00000000         0.00
  CG2R61   CG2R61    OG312     5   120.000000   334.720000   0.00000000         0.00
  CG2R61   CG2R61   OG3R60     5   120.000000   334.720000   0.00000000         0.00
  CG2R61   CG2R61    SG302     5   120.000000   334.720000   0.00000000         0.00
  CG2R61   CG2R61    SG311     5   120.000000   334.720000   0.00000000         0.00
  CG2R61   CG2R61    SG3O1     5   122.300000    83.680000   0.00000000         0.00
  CG2R61   CG2R61    SG3O2     5   119.000000   292.880000   0.00000000         0.00
  CG2R61   CG2R61    SG3O3     5   119.000000   292.880000   0.00000000         0.00
  CG2R61   CG2R61    CLGR1     5   120.000000   502.080000   0.00000000         0.00
  CG2R61   CG2R61    BRGR1     5   120.000000   376.560000   0.00000000         0.00
  CG2R61   CG2R61     IGR1     5   120.000000   376.560000   0.00000000         0.00
  CG2R61   CG2R61    BG201     5   120.000000   351.456000   0.00000000         0.00
  CG2R61   CG2R61    HGR61     5   120.000000   251.040000   0.21525000     18409.60
  CG2R61   CG2R61    HGR62     5   120.000000   251.040000   0.21525000     18409.60
  CG2R62   CG2R61   CG2R66     5   119.000000   334.720000   0.24162000     29288.00
  CG2R62   CG2R61    CG302     5   120.000000   383.254400   0.00000000         0.00
  CG2R62   CG2R61    CG311     5   120.000000   383.254400   0.00000000         0.00
  CG2R62   CG2R61    CG321     5   120.000000   383.254400   0.00000000         0.00
  CG2R62   CG2R61    CG331     5   120.000000   383.254400   0.00000000         0.00
  CG2R62   CG2R61   CG3C31     5   120.000000   383.254400   0.00000000         0.00
  CG2R62   CG2R61    NG2S3     5   121.000000   502.080000   0.00000000         0.00
  CG2R62   CG2R61    OG301     5   120.000000   920.480000   0.00000000         0.00
  CG2R62   CG2R61    OG312     5   120.000000   334.720000   0.00000000         0.00
  CG2R62   CG2R61    HGR61     5   121.000000   167.360000   0.21525000     18409.60
  CG2R62   CG2R61    HGR62     5   120.000000   251.040000   0.21525000     18409.60
  CG2R63   CG2R61    CG302     5   120.000000   383.254400   0.00000000         0.00
  CG2R63   CG2R61    CG321     5   120.000000   383.254400   0.00000000         0.00
  CG2R63   CG2R61    CG331     5   120.000000   383.254400   0.00000000         0.00
  CG2R63   CG2R61   CG3C51     5   123.191600   389.195680   0.00000000         0.00
  CG2R63   CG2R61    HGR62     5   120.000000   150.624000   0.21525000     18409.60
  CG2R64   CG2R61   CG2RC0     5   115.500000   334.720000   0.24162000     29288.00
  CG2R64   CG2R61    CG301     5   120.000000   383.254400   0.00000000         0.00
  CG2R64   CG2R61    CG302     5   120.000000   383.254400   0.00000000         0.00
  CG2R64   CG2R61    CG311     5   120.000000   383.254400   0.00000000         0.00
  CG2R64   CG2R61    CG321     5   120.000000   383.254400   0.00000000         0.00
  CG2R64   CG2R61    CG331     5   120.000000   383.254400   0.00000000         0.00
  CG2R64   CG2R61    NG2O1     5   120.000000   167.360000   0.00000000         0.00
  CG2R64   CG2R61   NG2R60     5   123.400000   167.360000   0.00000000         0.00
  CG2R64   CG2R61    NG2S3     5   121.000000   502.080000   0.00000000         0.00
  CG2R64   CG2R61    NG301     5   120.000000   351.456000   0.00000000         0.00
  CG2R64   CG2R61    NG311     5   120.000000   334.720000   0.00000000         0.00
  CG2R64   CG2R61    OG301     5   120.000000   920.480000   0.00000000         0.00
  CG2R64   CG2R61    OG311     5   120.000000   378.233600   0.00000000         0.00
  CG2R64   CG2R61    OG312     5   120.000000   334.720000   0.00000000         0.00
  CG2R64   CG2R61    SG311     5   120.000000   334.720000   0.00000000         0.00
  CG2R64   CG2R61    HGR61     5   120.000000   251.040000   0.21525000     18409.60
  CG2R64   CG2R61    HGR62     5   120.100000   317.984000   0.00000000         0.00
  CG2R66   CG2R61   CG2R66     5   117.000000   334.720000   0.24162000     29288.00
  CG2R66   CG2R61   CG2RC0     5   119.000000   334.720000   0.24162000     29288.00
  CG2R66   CG2R61    CG321     5   120.000000   383.254400   0.00000000         0.00
  CG2R66   CG2R61    CG324     5   120.000000   383.254400   0.00000000         0.00
  CG2R66   CG2R61    CG331     5   120.000000   383.254400   0.00000000         0.00
  CG2R66   CG2R61   CG3C31     5   118.020800   279.658560   0.00000000         0.00
  CG2R66   CG2R61   CG3C41     5   120.000000   383.254400   0.00000000         0.00
  CG2R66   CG2R61   CG3C53     5   120.000000   383.254400   0.00000000         0.00
  CG2R66   CG2R61    NG2O1     5   120.000000   167.360000   0.00000000         0.00
  CG2R66   CG2R61   NG2R60     5   124.000000   167.360000   0.00000000         0.00
  CG2R66   CG2R61   NG2R62     5   124.000000   167.360000   0.00000000         0.00
  CG2R66   CG2R61   NG2RC0     5   121.400000   836.800000   0.00000000         0.00
  CG2R66   CG2R61    NG2S1     5   120.000000   334.720000   0.24162000     29288.00
  CG2R66   CG2R61    NG2S3     5   121.000000   502.080000   0.00000000         0.00
  CG2R66   CG2R61    NG301     5   120.000000   351.456000   0.00000000         0.00
  CG2R66   CG2R61    NG311     5   120.000000   334.720000   0.00000000         0.00
  CG2R66   CG2R61    OG311     5   120.000000   378.233600   0.00000000         0.00
  CG2R66   CG2R61    OG312     5   120.000000   334.720000   0.00000000         0.00
  CG2R66   CG2R61   OG3R60     5   120.000000   334.720000   0.00000000         0.00
  CG2R66   CG2R61    SG311     5   120.000000   334.720000   0.00000000         0.00
  CG2R66   CG2R61    HGR62     5   121.500000   251.040000   0.21525000     18409.60
  CG2R67   CG2R61   CG2RC0     5   120.000000   418.400000   0.00000000         0.00
  CG2R67   CG2R61    CG301     5   120.000000   383.254400   0.00000000         0.00
  CG2R67   CG2R61    CG311     5   120.000000   383.254400   0.00000000         0.00
  CG2R67   CG2R61    CG321     5   120.000000   383.254400   0.00000000         0.00
  CG2R67   CG2R61    CG331     5   120.000000   383.254400   0.00000000         0.00
  CG2R67   CG2R61   CG3RC1     5   106.011400   408.191040   0.00000000         0.00
  CG2R67   CG2R61   NG2R60     5   124.000000   167.360000   0.00000000         0.00
  CG2R67   CG2R61   NG2R62     5   124.000000   167.360000   0.00000000         0.00
  CG2R67   CG2R61   NG2RC0     5   121.400000   836.800000   0.00000000         0.00
  CG2R67   CG2R61    NG301     5   120.000000   351.456000   0.00000000         0.00
  CG2R67   CG2R61    NG311     5   120.000000   334.720000   0.00000000         0.00
  CG2R67   CG2R61    OG311     5   120.000000   378.233600   0.00000000         0.00
  CG2R67   CG2R61    OG312     5   120.000000   334.720000   0.00000000         0.00
  CG2R67   CG2R61    SG311     5   120.000000   334.720000   0.00000000         0.00
  CG2R67   CG2R61    HGR61     5   120.000000   251.040000   0.00000000         0.00
  CG2R67   CG2R61    HGR62     5   120.000000   251.040000   0.00000000         0.00
  CG2RC0   CG2R61   CG2RC0     5   120.000000   418.400000   0.00000000         0.00
  CG2RC0   CG2R61    CG301     5   120.000000   383.254400   0.00000000         0.00
  CG2RC0   CG2R61    CG311     5   120.000000   383.254400   0.00000000         0.00
  CG2RC0   CG2R61    CG312     5   120.000000   383.254400   0.00000000         0.00
  CG2RC0   CG2R61    CG314     5   120.000000   383.254400   0.00000000         0.00
  CG2RC0   CG2R61    CG321     5   120.000000   383.254400   0.00000000         0.00
  CG2RC0   CG2R61    CG324     5   120.000000   383.254400   0.00000000         0.00
  CG2RC0   CG2R61    CG331     5   120.000000   383.254400   0.00000000         0.00
  CG2RC0   CG2R61    NG2O1     5   120.000000   167.360000   0.00000000         0.00
  CG2RC0   CG2R61   NG2R51     5   121.000000   502.080000   0.00000000         0.00
  CG2RC0   CG2R61   NG2R60     5   126.565400   486.850240   0.00000000         0.00
  CG2RC0   CG2R61   NG2R61     5   120.000000  1046.000000   0.00000000         0.00
  CG2RC0   CG2R61   NG2R62     5   119.000000   167.360000   0.00000000         0.00
  CG2RC0   CG2R61    NG2S1     5   120.000000   334.720000   0.24162000     29288.00
  CG2RC0   CG2R61    NG2S3     5   121.000000   502.080000   0.00000000         0.00
  CG2RC0   CG2R61   NG3C51     5   120.000000   334.720000   0.00000000         0.00
  CG2RC0   CG2R61    OG301     5   120.000000   920.480000   0.00000000         0.00
  CG2RC0   CG2R61    OG311     5   120.000000   378.233600   0.00000000         0.00
  CG2RC0   CG2R61    OG312     5   120.000000   334.720000   0.00000000         0.00
  CG2RC0   CG2R61    SG3O1     5   122.300000    83.680000   0.00000000         0.00
  CG2RC0   CG2R61    SG3O2     5   119.000000   292.880000   0.00000000         0.00
  CG2RC0   CG2R61    CLGR1     5   120.000000   502.080000   0.00000000         0.00
  CG2RC0   CG2R61    HGR61     5   120.000000   251.040000   0.21460000     18409.60
  CG2RC0   CG2R61    HGR62     5   121.500000   251.040000   0.00000000         0.00
   CG301   CG2R61   NG2R62     5   122.300000   383.254400   0.00000000         0.00
   CG311   CG2R61   NG2R60     5   122.300000   383.254400   0.00000000         0.00
   CG311   CG2R61   NG2R62     5   122.300000   383.254400   0.00000000         0.00
   CG311   CG2R61   NG2RC0     5   116.675200   323.172160   0.00000000         0.00
   CG312   CG2R61   NG2R62     5   115.877400   297.817120   0.00000000         0.00
   CG321   CG2R61   NG2R60     5   122.300000   383.254400   0.00000000         0.00
   CG321   CG2R61   NG2R62     5   122.300000   383.254400   0.00000000         0.00
   CG322   CG2R61   NG2R60     5   110.962700   453.043520   0.00000000         0.00
   CG331   CG2R61   NG2R52     5   115.935900   804.248480   0.00000000         0.00
   CG331   CG2R61   NG2R60     5   122.300000   383.254400   0.00000000         0.00
   CG331   CG2R61   NG2R61     5   111.186700   446.265440   0.00000000         0.00
   CG331   CG2R61   NG2R62     5   118.757900   426.098560   0.00000000         0.00
   CG331   CG2R61   OG3R60     5   108.222600   477.812800   0.00000000         0.00
  CG3C41   CG2R61   NG2R60     5   122.300000   383.254400   0.00000000         0.00
  CG3C50   CG2R61   NG2R60     5    96.107100   389.530400   0.00000000         0.00
  CG3C53   CG2R61   NG2R60     5   104.733200   499.318560   0.00000000         0.00
   NG2D1   CG2R61   OG3R60     5   129.312200   622.495520   0.00000000         0.00
   NG2P1   CG2R61    HGR62     5   113.000000   292.880000   0.00000000         0.00
  NG2R52   CG2R61    HGR62     5   113.000000   292.880000   0.00000000         0.00
  NG2R60   CG2R61    OG301     5   114.987900   497.226560   0.00000000         0.00
  NG2R60   CG2R61    SG311     5   116.980700   514.464640   0.00000000         0.00
  NG2R60   CG2R61    SG3O1     5   110.831700   428.776320   0.00000000         0.00
  NG2R60   CG2R61    BRGR1     5   120.000000   376.560000   0.00000000         0.00
  NG2R60   CG2R61    HGR62     5   116.000000   251.040000   0.21000000     29288.00
  NG2R61   CG2R61    OG312     5   125.983000   708.602240   0.00000000         0.00
  NG2R61   CG2R61    HGR62     5   115.000000   276.144000   0.00000000         0.00
  NG2R62   CG2R61    OG301     5   129.256300   392.542880   0.00000000         0.00
  NG2R62   CG2R61    OG311     5   120.000000   378.233600   0.00000000         0.00
  NG2R62   CG2R61    SG311     5   126.344700   405.848000   0.00000000         0.00
  NG2R62   CG2R61    SG3O2     5   132.978100   230.789440   0.00000000         0.00
  NG2R62   CG2R61    HGR62     5   116.000000   251.040000   0.21000000     29288.00
  NG2R67   CG2R61    HGR62     5   115.000000   276.144000   0.00000000         0.00
  NG2RC0   CG2R61    HGR62     5   118.600000   251.040000   0.00000000         0.00
   SG311   CG2R61    HGR62     5   108.226900   303.591040   0.00000000         0.00
  CG2DC1   CG2R62   CG2R62     5   120.000000   301.248000   0.00000000         0.00
  CG2DC1   CG2R62   CG2R63     5   120.000000   301.248000   0.00000000         0.00
  CG2DC1   CG2R62   NG2R61     5   119.692600   346.435200   0.00000000         0.00
  CG2DC2   CG2R62   CG2R62     5   120.000000   301.248000   0.00000000         0.00
  CG2DC2   CG2R62   CG2R63     5   120.000000   301.248000   0.00000000         0.00
  CG2DC2   CG2R62   NG2R61     5   119.692600   346.435200   0.00000000         0.00
   CG2N2   CG2R62   CG2R62     5   120.000000   209.200000   0.00000000         0.00
   CG2N2   CG2R62   CG2R63     5   120.000000   209.200000   0.00000000         0.00
   CG2O1   CG2R62   CG2R62     5   131.800000    83.680000   0.00000000         0.00
   CG2O1   CG2R62   CG2R63     5   131.800000    83.680000   0.00000000         0.00
   CG2O1   CG2R62   NG2R61     5   106.777300     8.451680   0.00000000         0.00
   CG2O2   CG2R62   CG2R62     5   120.000000   418.400000   0.00000000         0.00
   CG2O2   CG2R62   CG2R63     5   122.200000   543.920000   0.00000000         0.00
   CG2O2   CG2R62   NG2R61     5   112.452700   449.026880   0.00000000         0.00
   CG2O2   CG2R62   OG3R60     5   103.770200   490.113760   0.00000000         0.00
   CG2O3   CG2R62   CG2R62     5   119.000000   376.560000   0.00000000         0.00
   CG2O3   CG2R62   CG2R63     5   122.200000   543.920000   0.00000000         0.00
   CG2O3   CG2R62   NG2R61     5   113.833100   308.946560   0.00000000         0.00
   CG2O3   CG2R62   OG3R60     5   102.912400   377.647840   0.00000000         0.00
   CG2O4   CG2R62   CG2R62     5   120.000000   418.400000   0.00000000         0.00
   CG2O4   CG2R62   CG2R64     5   122.200000   543.920000   0.00000000         0.00
   CG2O5   CG2R62   CG2R62     5   120.000000   418.400000   0.00000000         0.00
   CG2O5   CG2R62   CG2R63     5   122.200000   543.920000   0.00000000         0.00
  CG2R51   CG2R62   CG2R62     5   120.000000   267.776000   0.00000000         0.00
  CG2R51   CG2R62   NG2R62     5   107.808900   376.727360   0.00000000         0.00
  CG2R52   CG2R62   CG2R62     5   120.000000   267.776000   0.00000000         0.00
  CG2R52   CG2R62   NG2R61     5   108.698100   307.775040   0.00000000         0.00
  CG2R53   CG2R62   CG2R62     5   120.000000   267.776000   0.00000000         0.00
  CG2R53   CG2R62   CG2R63     5   120.000000   267.776000   0.00000000         0.00
  CG2R61   CG2R62   CG2R62     5   121.000000   334.720000   0.00000000         0.00
  CG2R61   CG2R62   CG2R63     5   122.300000  1004.160000   0.00000000         0.00
  CG2R61   CG2R62   CG2R64     5   122.300000  1004.160000   0.00000000         0.00
  CG2R61   CG2R62   CG2RC0     5   121.000000   334.720000   0.00000000         0.00
  CG2R61   CG2R62    NG2O1     5   120.000000   167.360000   0.00000000         0.00
  CG2R61   CG2R62   NG2R60     5   118.000000   251.040000   0.00000000         0.00
  CG2R61   CG2R62   NG2R61     5   116.100000   192.464000   0.00000000         0.00
  CG2R61   CG2R62   NG2R62     5   118.000000   251.040000   0.00000000         0.00
  CG2R61   CG2R62   NG2RC0     5   121.400000   836.800000   0.00000000         0.00
  CG2R61   CG2R62   OG3R60     5   119.700000   334.720000   0.00000000         0.00
  CG2R61   CG2R62    SG311     5   120.000000   334.720000   0.00000000         0.00
  CG2R62   CG2R62   CG2R62     5   118.000000   334.720000   0.00000000         0.00
  CG2R62   CG2R62   CG2R63     5   116.700000  1004.160000   0.00000000         0.00
  CG2R62   CG2R62   CG2R64     5   117.800000   711.280000   0.00000000         0.00
  CG2R62   CG2R62   CG2R66     5   118.000000   334.720000   0.00000000         0.00
  CG2R62   CG2R62   CG2R67     5   121.000000   334.720000   0.00000000         0.00
  CG2R62   CG2R62   CG2RC0     5   121.000000   334.720000   0.00000000         0.00
  CG2R62   CG2R62    CG301     5   124.200000   334.720000   0.00000000         0.00
  CG2R62   CG2R62    CG302     5   120.000000   383.254400   0.00000000         0.00
  CG2R62   CG2R62    CG311     5   124.200000   334.720000   0.00000000         0.00
  CG2R62   CG2R62    CG312     5   120.000000   383.254400   0.00000000         0.00
  CG2R62   CG2R62    CG321     5   123.000000   334.720000   0.00000000         0.00
  CG2R62   CG2R62    CG324     5   125.800000   383.254400   0.00000000         0.00
  CG2R62   CG2R62    CG331     5   124.200000   334.720000   0.00000000         0.00
  CG2R62   CG2R62   CG3C31     5   123.000000   334.720000   0.00000000         0.00
  CG2R62   CG2R62   CG3C41     5   123.000000   334.720000   0.00000000         0.00
  CG2R62   CG2R62   CG3C50     5   146.478100   404.090720   0.00000000         0.00
  CG2R62   CG2R62   CG3C51     5   124.637800   356.058400   0.00000000         0.00
  CG2R62   CG2R62    NG2D1     5   125.500000   669.440000   0.00000000         0.00
  CG2R62   CG2R62    NG2O1     5   120.000000   167.360000   0.00000000         0.00
  CG2R62   CG2R62    NG2P1     5   121.200000   326.352000   0.21900000     35982.40
  CG2R62   CG2R62   NG2R51     5   121.000000   502.080000   0.00000000         0.00
  CG2R62   CG2R62   NG2R52     5   121.200000   326.352000   0.21900000     35982.40
  CG2R62   CG2R62   NG2R60     5   121.000000   167.360000   0.00000000         0.00
  CG2R62   CG2R62   NG2R61     5   122.900000   711.280000   0.00000000         0.00
  CG2R62   CG2R62   NG2R62     5   121.000000   167.360000   0.00000000         0.00
  CG2R62   CG2R62   NG2R67     5   122.900000   711.280000   0.00000000         0.00
  CG2R62   CG2R62   NG2RC0     5   121.400000   836.800000   0.00000000         0.00
  CG2R62   CG2R62    NG2S1     5   120.000000   334.720000   0.24162000     29288.00
  CG2R62   CG2R62    NG2S3     5   121.000000   502.080000   0.00000000         0.00
  CG2R62   CG2R62    NG301     5   109.620000   357.815680   0.00000000         0.00
  CG2R62   CG2R62    NG311     5   109.620000   357.815680   0.00000000         0.00
  CG2R62   CG2R62   NG3C51     5   121.570700   229.617920   0.00000000         0.00
  CG2R62   CG2R62    NG3N1     5   109.620000   357.815680   0.00000000         0.00
  CG2R62   CG2R62    OG301     5   120.300000  1004.160000   0.00000000         0.00
  CG2R62   CG2R62    OG311     5   123.800000   426.768000   0.00000000         0.00
  CG2R62   CG2R62    OG312     5   120.000000   334.720000   0.00000000         0.00
  CG2R62   CG2R62   OG3R60     5   119.300000    83.680000   0.00000000         0.00
  CG2R62   CG2R62    SG302     5   130.393000   406.182720   0.00000000         0.00
  CG2R62   CG2R62    SG311     5   120.000000   334.720000   0.00000000         0.00
  CG2R62   CG2R62    SG3O2     5   119.000000   292.880000   0.00000000         0.00
  CG2R62   CG2R62    HGR62     5   119.000000   351.456000   0.00000000         0.00
  CG2R62   CG2R62    HGR63     5   120.500000   669.440000   0.00000000         0.00
  CG2R63   CG2R62   CG2R64     5   116.760000    37.237600   0.00000000         0.00
  CG2R63   CG2R62   CG2R66     5   116.700000  1004.160000   0.00000000         0.00
  CG2R63   CG2R62   CG2R67     5   122.300000  1004.160000   0.00000000         0.00
  CG2R63   CG2R62   CG2RC0     5   122.300000  1004.160000   0.00000000         0.00
  CG2R63   CG2R62    CG311     5   121.200000   359.824000   0.00000000         0.00
  CG2R63   CG2R62    CG321     5   119.100000   510.448000   0.00000000         0.00
  CG2R63   CG2R62    CG324     5   117.500000   351.456000   0.00000000         0.00
  CG2R63   CG2R62    CG331     5   118.700000   317.984000   0.00000000         0.00
  CG2R63   CG2R62    NG2O1     5   120.000000   167.360000   0.00000000         0.00
  CG2R63   CG2R62   NG2R60     5   121.000000   167.360000   0.00000000         0.00
  CG2R63   CG2R62   NG2R61     5   122.900000   711.280000   0.00000000         0.00
  CG2R63   CG2R62   NG2R62     5   121.000000   167.360000   0.00000000         0.00
  CG2R63   CG2R62    NG2S3     5   121.000000   502.080000   0.00000000         0.00
  CG2R63   CG2R62    NG311     5   109.620000   357.815680   0.00000000         0.00
  CG2R63   CG2R62   NG3C51     5   103.719400   338.736640   0.00000000         0.00
  CG2R63   CG2R62    OG301     5   123.000000   920.480000   0.00000000         0.00
  CG2R63   CG2R62    OG311     5   117.500000   410.032000   0.00000000         0.00
  CG2R63   CG2R62    OG312     5   120.000000   334.720000   0.00000000         0.00
  CG2R63   CG2R62    SG3O2     5   119.000000   292.880000   0.00000000         0.00
  CG2R63   CG2R62    HGR62     5   120.300000   251.040000   0.00000000         0.00
  CG2R64   CG2R62   CG2R64     5   116.760000    37.237600   0.00000000         0.00
  CG2R64   CG2R62    CG321     5   118.500000   384.928000   0.00000000         0.00
  CG2R64   CG2R62    CG331     5   118.900000   384.928000   0.00000000         0.00
  CG2R64   CG2R62   NG2R60     5   121.000000   167.360000   0.00000000         0.00
  CG2R64   CG2R62   NG2R61     5   122.900000   711.280000   0.00000000         0.00
  CG2R64   CG2R62    NG311     5   120.350000   204.848640   0.00000000         0.00
  CG2R64   CG2R62    SG3O2     5   119.000000   292.880000   0.00000000         0.00
  CG2R64   CG2R62    HGR62     5   120.100000   317.984000   0.00000000         0.00
  CG2R66   CG2R62    CG331     5   124.200000   334.720000   0.00000000         0.00
  CG2R66   CG2R62   NG2R61     5   122.900000   711.280000   0.00000000         0.00
  CG2R66   CG2R62    HGR62     5   119.000000   351.456000   0.00000000         0.00
  CG2R67   CG2R62   NG2R61     5   116.100000   192.464000   0.00000000         0.00
  CG2R67   CG2R62   NG2R62     5   118.000000   251.040000   0.00000000         0.00
  CG2R67   CG2R62   OG3R60     5   119.700000   334.720000   0.00000000         0.00
  CG2R67   CG2R62    HGR62     5   119.000000   351.456000   0.00000000         0.00
  CG2R67   CG2R62    HGR63     5   120.500000   669.440000   0.00000000         0.00
  CG2RC0   CG2R62    CG321     5   123.000000   334.720000   0.00000000         0.00
  CG2RC0   CG2R62    CG331     5   124.200000   334.720000   0.00000000         0.00
  CG2RC0   CG2R62   NG2R60     5   118.000000   251.040000   0.00000000         0.00
  CG2RC0   CG2R62   NG2R61     5   116.100000   192.464000   0.00000000         0.00
  CG2RC0   CG2R62   NG2R62     5   118.000000   251.040000   0.00000000         0.00
  CG2RC0   CG2R62    NG2S3     5   121.000000   502.080000   0.00000000         0.00
  CG2RC0   CG2R62    HGR62     5   119.000000   351.456000   0.00000000         0.00
  CG2RC0   CG2R62    HGR63     5   120.500000   669.440000   0.00000000         0.00
   CG301   CG2R62   NG2R61     5   114.926400   461.495200   0.00000000         0.00
   CG302   CG2R62   NG2R61     5   106.698600   240.077920   0.00000000         0.00
   CG302   CG2R62   OG3R60     5    79.154900    48.199680   0.00000000         0.00
   CG311   CG2R62   NG2R61     5   112.410200   351.707040   0.00000000         0.00
   CG311   CG2R62   NG2R62     5   122.300000   383.254400   0.00000000         0.00
   CG312   CG2R62   NG2R62     5   121.542900   216.396480   0.00000000         0.00
   CG321   CG2R62   NG2R61     5   121.243800   489.360640   0.00000000         0.00
   CG321   CG2R62   NG2R62     5   122.300000   383.254400   0.00000000         0.00
   CG324   CG2R62   NG2R61     5    90.593500   116.147840   0.00000000         0.00
   CG324   CG2R62   NG2R62     5   121.143300   341.163360   0.00000000         0.00
   CG331   CG2R62   NG2R60     5   122.300000   383.254400   0.00000000         0.00
   CG331   CG2R62   NG2R61     5   124.711400   479.319040   0.00000000         0.00
   CG331   CG2R62   NG2R62     5   122.300000   383.254400   0.00000000         0.00
   CG331   CG2R62   NG2R67     5   117.823300   408.023680   0.00000000         0.00
  CG3C31   CG2R62   NG2R61     5   119.170600   523.753120   0.00000000         0.00
  CG3C41   CG2R62   NG2R62     5   112.550500   462.332000   0.00000000         0.00
  CG3C51   CG2R62   NG2R61     5   119.643600   352.041760   0.00000000         0.00
   NG2D1   CG2R62   NG2R61     5   111.680600   263.173600   0.00000000         0.00
   NG2D1   CG2R62   NG2R62     5   125.973400   526.347200   0.00000000         0.00
   NG2O1   CG2R62   NG2R61     5   113.796000    13.054080   0.00000000         0.00
   NG2O1   CG2R62    HGR63     5   110.085400     9.790560   0.00000000         0.00
   NG2P1   CG2R62   NG2R61     5   123.395600   567.852480   0.00000000         0.00
  NG2R51   CG2R62   NG2R61     5   116.823700   445.847040   0.00000000         0.00
  NG2R52   CG2R62   NG2R61     5   129.740700   562.496960   0.00000000         0.00
  NG2R60   CG2R62    NG2S3     5   123.653600   615.215360   0.00000000         0.00
  NG2R60   CG2R62   OG3R60     5   101.889400     9.204800   0.00000000         0.00
  NG2R60   CG2R62    HGR62     5   120.000000   196.648000   0.21000000     29288.00
  NG2R61   CG2R62   NG2R62     5   124.000000   418.400000   0.00000000         0.00
  NG2R61   CG2R62    NG2S3     5   120.809900   528.439200   0.00000000         0.00
  NG2R61   CG2R62    NG301     5   118.120700   658.477920   0.00000000         0.00
  NG2R61   CG2R62    NG311     5   121.945800   468.608000   0.00000000         0.00
  NG2R61   CG2R62    NG3N1     5   113.928400   562.078560   0.00000000         0.00
  NG2R61   CG2R62    OG311     5   115.169600   692.535680   0.00000000         0.00
  NG2R61   CG2R62    OG312     5   124.628800   808.934560   0.00000000         0.00
  NG2R61   CG2R62   OG3R60     5   115.310200   731.697920   0.00000000         0.00
  NG2R61   CG2R62    SG311     5   114.775000   410.366720   0.00000000         0.00
  NG2R61   CG2R62    HGR62     5   115.000000   368.192000   0.00000000         0.00
  NG2R61   CG2R62    HGR63     5   117.500000   669.440000   0.00000000         0.00
  NG2R62   CG2R62    OG311     5   121.000000   744.752000   0.23080000     75312.00
  NG2R62   CG2R62    OG312     5   128.401700   605.006400   0.00000000         0.00
  NG2R62   CG2R62    HGR62     5   120.000000   196.648000   0.21000000     29288.00
  NG2R62   CG2R62    HGR63     5   118.500000   422.584000   0.00000000         0.00
  NG2R67   CG2R62    OG311     5   109.323600   492.038400   0.00000000         0.00
  NG2R67   CG2R62    HGR62     5   118.100000   368.192000   0.00000000         0.00
  NG2R67   CG2R62    HGR63     5   118.100000   368.192000   0.00000000         0.00
  NG2RC0   CG2R62    HGR63     5   118.600000   251.040000   0.00000000         0.00
  OG3R60   CG2R62    HGR62     5   105.097900   450.282080   0.00000000         0.00
  CG2R61   CG2R63   CG2R61     5   120.800000    83.680000   0.00000000         0.00
  CG2R61   CG2R63   NG2R61     5   111.900000   493.712000   0.00000000         0.00
  CG2R61   CG2R63   NG2R67     5   113.400000   493.712000   0.00000000         0.00
  CG2R61   CG2R63   OG3R60     5   121.500000    83.680000   0.00000000         0.00
  CG2R61   CG2R63    SG2D1     5   125.100000   317.984000   0.00000000         0.00
  CG2R62   CG2R63   CG2R62     5   120.800000    83.680000   0.00000000         0.00
  CG2R62   CG2R63   NG2R61     5   113.500000   585.760000   0.00000000         0.00
  CG2R62   CG2R63   NG2R62     5   117.800000   669.440000   0.00000000         0.00
  CG2R62   CG2R63   NG2R67     5   115.700000   585.760000   0.00000000         0.00
  CG2R62   CG2R63    OG2D4     5   124.600000   836.800000   0.00000000         0.00
  CG2R62   CG2R63   OG3R60     5   121.500000    83.680000   0.00000000         0.00
  CG2R62   CG2R63    SG2D1     5   123.500000   435.136000   0.00000000         0.00
  CG2R63   CG2R63   NG2R61     5   113.500000   585.760000   0.00000000         0.00
  CG2R63   CG2R63    OG2D4     5   124.600000   836.800000   0.00000000         0.00
  CG2R63   CG2R63    SG2D1     5   123.500000   435.136000   0.00000000         0.00
  CG2R64   CG2R63   NG2R61     5   113.500000   585.760000   0.00000000         0.00
  CG2R64   CG2R63    OG2D4     5   124.600000   836.800000   0.00000000         0.00
  CG2R64   CG2R63   OG3R60     5   121.500000    83.680000   0.00000000         0.00
  CG2R64   CG2R63    SG2D1     5   123.500000   435.136000   0.00000000         0.00
  CG2R66   CG2R63   NG2R61     5   113.500000   585.760000   0.00000000         0.00
  CG2R66   CG2R63   NG2R62     5   117.800000   669.440000   0.00000000         0.00
  CG2R66   CG2R63    OG2D4     5   124.600000   836.800000   0.00000000         0.00
  CG2R66   CG2R63    SG2D1     5   123.500000   435.136000   0.00000000         0.00
  CG2RC0   CG2R63   NG2R61     5   107.800000   585.760000   0.00000000         0.00
  CG2RC0   CG2R63   NG2R62     5   117.800000   669.440000   0.00000000         0.00
  CG2RC0   CG2R63   NG2RC0     5   108.000000   585.760000   0.00000000         0.00
  CG2RC0   CG2R63    OG2D4     5   124.700000   418.400000   0.00000000         0.00
  CG2RC0   CG2R63   OG3R60     5   121.500000    83.680000   0.00000000         0.00
  CG2RC0   CG2R63    SG2D1     5   125.100000   317.984000   0.00000000         0.00
   NG2P1   CG2R63   NG2R61     5   115.600000   510.448000   0.00000000         0.00
   NG2P1   CG2R63    OG2D4     5   125.000000   669.440000   0.00000000         0.00
  NG2R52   CG2R63   NG2R61     5   115.600000   510.448000   0.00000000         0.00
  NG2R52   CG2R63    OG2D4     5   125.000000   669.440000   0.00000000         0.00
  NG2R61   CG2R63   NG2R61     5   114.000000   418.400000   0.00000000         0.00
  NG2R61   CG2R63   NG2R62     5   116.800000   418.400000   0.00000000         0.00
  NG2R61   CG2R63   NG2R67     5   114.000000   418.400000   0.00000000         0.00
  NG2R61   CG2R63    OG2D4     5   119.400000  1087.840000   0.00000000         0.00
  NG2R61   CG2R63   OG3R60     5   121.638800   470.951040   0.00000000         0.00
  NG2R61   CG2R63    SG2D1     5   123.000000   468.608000   0.00000000         0.00
  NG2R61   CG2R63    SG311     5   120.963400   418.065280   0.00000000         0.00
  NG2R61   CG2R63    SEGD1     5   122.500000   543.920000   0.00000000         0.00
  NG2R62   CG2R63   NG2RC0     5   116.800000   418.400000   0.00000000         0.00
  NG2R62   CG2R63    OG2D4     5   123.800000  1087.840000   0.00000000         0.00
  NG2R62   CG2R63    SG2D1     5   123.700000   585.760000   0.00000000         0.00
  NG2R67   CG2R63    OG2D4     5   119.700000  1087.840000   0.00000000         0.00
  NG2R67   CG2R63    SG2D1     5   123.000000   468.608000   0.00000000         0.00
  NG2RC0   CG2R63    OG2D4     5   122.100000   811.696000   0.00000000         0.00
  NG2RC0   CG2R63    SG2D1     5   123.000000   468.608000   0.00000000         0.00
   OG2D4   CG2R63   OG3R60     5   113.900000   167.360000   0.00000000         0.00
   OG2D4   CG2R63    SG311     5   114.505100   418.148960   0.00000000         0.00
  OG3R60   CG2R63    SG2D1     5   119.538400   629.440960   0.00000000         0.00
  CG2DC1   CG2R64   NG2R62     5    94.972400   416.308000   0.00000000         0.00
  CG2DC2   CG2R64   NG2R62     5    94.972400   416.308000   0.00000000         0.00
   CG2O1   CG2R64   NG2R61     5   107.462200   503.753600   0.00000000         0.00
   CG2O1   CG2R64   NG2R62     5   110.956600   468.273280   0.00000000         0.00
   CG2O2   CG2R64   NG2R61     5    97.694900   524.004160   0.00000000         0.00
   CG2O2   CG2R64   NG2R62     5    92.514300   527.686080   0.00000000         0.00
   CG2O3   CG2R64   NG2R61     5    94.848800   391.622400   0.00000000         0.00
   CG2O3   CG2R64   NG2R62     5    96.930400   413.379200   0.00000000         0.00
  CG2R51   CG2R64   NG2R61     5   109.358100   451.453600   0.00000000         0.00
  CG2R51   CG2R64   NG2R62     5   114.708900   210.706240   0.00000000         0.00
  CG2R53   CG2R64   NG2R61     5    80.752600   526.096160   0.00000000         0.00
  CG2R53   CG2R64   NG2R62     5    86.147100   507.519200   0.00000000         0.00
  CG2R61   CG2R64    NG2D1     5   119.000000   401.664000   0.25830000     50208.00
  CG2R61   CG2R64    NG2O1     5   119.000000   401.664000   0.25830000     50208.00
  CG2R61   CG2R64    NG2P1     5   110.000000   502.080000   0.25600000     42676.80
  CG2R61   CG2R64   NG2R51     5   120.000000   334.720000   0.00000000         0.00
  CG2R61   CG2R64   NG2R53     5   120.000000   334.720000   0.24162000     29288.00
  CG2R61   CG2R64   NG2R60     5   124.000000   167.360000   0.00000000         0.00
  CG2R61   CG2R64   NG2R61     5   115.660000   280.244320   0.00000000         0.00
  CG2R61   CG2R64   NG2R62     5   128.000000   167.360000   0.00000000         0.00
  CG2R61   CG2R64   NG2R67     5   115.660000   280.244320   0.00000000         0.00
  CG2R61   CG2R64    NG2S0     5   124.498200   433.546080   0.00000000         0.00
  CG2R61   CG2R64    NG2S1     5   120.000000   334.720000   0.24162000     29288.00
  CG2R61   CG2R64    NG2S3     5   118.500000   502.080000   0.00000000         0.00
  CG2R61   CG2R64    NG301     5   121.000000   527.184000   0.00000000         0.00
  CG2R61   CG2R64    NG311     5   121.000000   527.184000   0.00000000         0.00
  CG2R61   CG2R64   NG3C51     5   121.000000   527.184000   0.00000000         0.00
  CG2R61   CG2R64    NG3N1     5   121.000000   527.184000   0.00000000         0.00
  CG2R62   CG2R64    NG2D1     5   124.500000   401.664000   0.25120000     35982.40
  CG2R62   CG2R64    NG2P1     5   120.300000   435.136000   0.23600000     29288.00
  CG2R62   CG2R64   NG2R61     5   120.200000   669.440000   0.00000000         0.00
  CG2R62   CG2R64   NG2R62     5   119.300000   711.280000   0.00000000         0.00
  CG2R62   CG2R64    NG2S1     5   118.000000   334.720000   0.22420000     29288.00
  CG2R62   CG2R64    NG2S3     5   118.400000   677.808000   0.00000000         0.00
  CG2R62   CG2R64    NG301     5   120.700000   560.656000   0.00000000         0.00
  CG2R62   CG2R64    NG311     5   119.000000   510.448000   0.00000000         0.00
  CG2R63   CG2R64   NG2R60     5   124.000000   167.360000   0.00000000         0.00
  CG2R63   CG2R64    NG2S3     5   118.400000   677.808000   0.00000000         0.00
  CG2R63   CG2R64    NG301     5   120.700000   560.656000   0.00000000         0.00
  CG2R63   CG2R64    NG311     5   119.000000   510.448000   0.00000000         0.00
  CG2R63   CG2R64   NG3C51     5   119.000000   510.448000   0.00000000         0.00
  CG2R64   CG2R64   NG2R60     5   124.000000   167.360000   0.00000000         0.00
  CG2R64   CG2R64   NG2R61     5   120.200000   669.440000   0.00000000         0.00
  CG2R64   CG2R64   NG2R62     5   119.300000   711.280000   0.00000000         0.00
  CG2R64   CG2R64    NG2S3     5   118.400000   677.808000   0.00000000         0.00
  CG2R64   CG2R64   NG3C51     5   119.000000   510.448000   0.00000000         0.00
  CG2R66   CG2R64   NG2R51     5   120.000000   334.720000   0.00000000         0.00
  CG2R66   CG2R64   NG2R60     5   124.000000   167.360000   0.00000000         0.00
  CG2R66   CG2R64   NG2R61     5   120.200000   669.440000   0.00000000         0.00
  CG2R66   CG2R64   NG2R62     5   119.300000   711.280000   0.00000000         0.00
  CG2R66   CG2R64    NG2S3     5   118.400000   677.808000   0.00000000         0.00
  CG2R66   CG2R64    NG3N1     5   119.000000   510.448000   0.00000000         0.00
  CG2R67   CG2R64   NG2R62     5   128.000000   167.360000   0.00000000         0.00
  CG2R67   CG2R64    NG2S3     5   118.500000   502.080000   0.00000000         0.00
  CG2RC0   CG2R64    NG2D1     5   124.500000   401.664000   0.25120000     35982.40
  CG2RC0   CG2R64    NG2P1     5   119.000000   435.136000   0.23600000     29288.00
  CG2RC0   CG2R64   NG2R51     5   120.000000   334.720000   0.00000000         0.00
  CG2RC0   CG2R64   NG2R60     5   124.000000   167.360000   0.00000000         0.00
  CG2RC0   CG2R64   NG2R61     5   120.200000   669.440000   0.00000000         0.00
  CG2RC0   CG2R64   NG2R62     5   110.700000   502.080000   0.00000000         0.00
  CG2RC0   CG2R64    NG2S0     5   126.000000   292.880000   0.23800000     12552.00
  CG2RC0   CG2R64    NG2S1     5   118.000000   334.720000   0.22420000     29288.00
  CG2RC0   CG2R64    NG2S3     5   118.600000   418.400000   0.00000000         0.00
  CG2RC0   CG2R64    NG301     5   120.000000   334.720000   0.00000000         0.00
  CG2RC0   CG2R64    NG311     5   119.000000   510.448000   0.00000000         0.00
   CG301   CG2R64   NG2R61     5   101.010600   528.439200   0.00000000         0.00
   CG301   CG2R64   NG2R62     5   116.000000   531.368000   0.00000000         0.00
   CG302   CG2R64   NG2R61     5   104.595300   321.331200   0.00000000         0.00
   CG302   CG2R64   NG2R62     5   113.194800   405.094880   0.00000000         0.00
   CG311   CG2R64   NG2R61     5   105.832400   297.315040   0.00000000         0.00
   CG311   CG2R64   NG2R62     5   116.000000   531.368000   0.00000000         0.00
   CG314   CG2R64   NG2R62     5   126.140800   373.296480   0.00000000         0.00
   CG321   CG2R64   NG2R61     5   102.849600   309.448640   0.00000000         0.00
   CG321   CG2R64   NG2R62     5   116.000000   531.368000   0.00000000         0.00
   CG324   CG2R64   NG2R61     5    95.089800   385.764800   0.00000000         0.00
   CG324   CG2R64   NG2R62     5   105.641900   572.454880   0.00000000         0.00
   CG331   CG2R64   NG2R52     5    98.513500   298.402880   0.00000000         0.00
   CG331   CG2R64   NG2R61     5   107.441000   366.602080   0.00000000         0.00
   CG331   CG2R64   NG2R62     5   116.000000   531.368000   0.00000000         0.00
  CG3C31   CG2R64   NG2R61     5   107.071000   335.640480   0.00000000         0.00
  CG3C31   CG2R64   NG2R62     5   116.000000   531.368000   0.00000000         0.00
  CG3C41   CG2R64   NG2R62     5   116.000000   531.368000   0.00000000         0.00
  CG3C50   CG2R64   NG2R62     5   103.447900   397.145280   0.00000000         0.00
  CG3C51   CG2R64   NG2R61     5   110.167400   429.111040   0.00000000         0.00
  CG3C51   CG2R64   NG2R62     5   114.722200   432.123520   0.00000000         0.00
  CG3C53   CG2R64   NG2R61     5   108.480900   228.028000   0.00000000         0.00
  CG3C53   CG2R64   NG2R62     5   113.264300   746.760320   0.00000000         0.00
   NG2D1   CG2R64    NG2P1     5   121.000000   527.184000   0.24830000     26777.60
   NG2D1   CG2R64   NG2R60     5   124.000000   343.088000   0.25620000     71128.00
   NG2D1   CG2R64   NG2R61     5   116.800000   753.120000   0.00000000         0.00
   NG2D1   CG2R64   NG2R62     5   124.000000   343.088000   0.25620000     71128.00
   NG2D1   CG2R64   NG2R67     5   116.800000   753.120000   0.00000000         0.00
   NG2D1   CG2R64    SG311     5   129.848400   375.304800   0.00000000         0.00
   NG2O1   CG2R64   NG2R60     5   109.497400   336.226240   0.00000000         0.00
   NG2P1   CG2R64    NG2P1     5   118.000000   418.400000   0.22750000     33472.00
   NG2P1   CG2R64   NG2R60     5   122.000000   585.760000   0.00000000         0.00
   NG2P1   CG2R64   NG2R61     5   117.378800   122.758560   0.00000000         0.00
   NG2P1   CG2R64   NG2R62     5   122.000000   585.760000   0.00000000         0.00
   NG2P1   CG2R64    HGR62     5   112.600000   401.664000   0.00000000         0.00
  NG2R51   CG2R64   NG2R60     5   116.000000   334.720000   0.00000000         0.00
  NG2R51   CG2R64   NG2R62     5   116.000000   334.720000   0.00000000         0.00
  NG2R52   CG2R64   NG2R62     5   122.000000   585.760000   0.00000000         0.00
  NG2R53   CG2R64   NG2R60     5   120.000000   334.720000   0.24162000     29288.00
  NG2R60   CG2R64    NG2S1     5   120.000000   334.720000   0.24162000     29288.00
  NG2R60   CG2R64    NG2S3     5   122.400000   794.960000   0.00000000         0.00
  NG2R60   CG2R64    NG301     5   119.700000   652.704000   0.00000000         0.00
  NG2R60   CG2R64    NG311     5   119.700000   652.704000   0.00000000         0.00
  NG2R60   CG2R64   NG3C51     5   119.700000   652.704000   0.00000000         0.00
  NG2R60   CG2R64    NG3N1     5   119.700000   652.704000   0.00000000         0.00
  NG2R60   CG2R64   OG3R60     5   126.127500   577.308320   0.00000000         0.00
  NG2R61   CG2R64   NG2R61     5   105.379100     8.368000   0.00000000         0.00
  NG2R61   CG2R64   NG2R62     5   122.200000   585.760000   0.00000000         0.00
  NG2R61   CG2R64    NG2S1     5   115.400000   794.960000   0.00000000         0.00
  NG2R61   CG2R64    NG2S3     5   115.400000   794.960000   0.00000000         0.00
  NG2R61   CG2R64    NG301     5   119.600000   208.195840   0.00000000         0.00
  NG2R61   CG2R64    NG311     5   120.000000   610.864000   0.00000000         0.00
  NG2R61   CG2R64   NG3C51     5   120.000000   610.864000   0.00000000         0.00
  NG2R61   CG2R64    OG301     5   102.805900   744.333600   0.00000000         0.00
  NG2R61   CG2R64    SG311     5   121.800000   167.360000   0.00000000         0.00
  NG2R61   CG2R64    HGR62     5   119.000000   669.440000   0.00000000         0.00
  NG2R62   CG2R64   NG2R62     5   128.000000   502.080000   0.00000000         0.00
  NG2R62   CG2R64   NG2R67     5   125.000000   585.760000   0.00000000         0.00
  NG2R62   CG2R64   NG2RC0     5   122.200000   585.760000   0.00000000         0.00
  NG2R62   CG2R64    NG2S0     5   120.000000   292.880000   0.22500000      8368.00
  NG2R62   CG2R64    NG2S1     5   122.700000   368.192000   0.24162000     29288.00
  NG2R62   CG2R64    NG2S3     5   122.400000   794.960000   0.00000000         0.00
  NG2R62   CG2R64    NG301     5   120.000000   652.704000   0.00000000         0.00
  NG2R62   CG2R64    NG311     5   121.700000   552.288000   0.00000000         0.00
  NG2R62   CG2R64   NG3C51     5   121.700000   552.288000   0.00000000         0.00
  NG2R62   CG2R64    NG3N1     5   121.700000   552.288000   0.00000000         0.00
  NG2R62   CG2R64    OG301     5   106.830500   674.042400   0.00000000         0.00
  NG2R62   CG2R64    SG311     5   116.000000   451.872000   0.00000000         0.00
  NG2R62   CG2R64    SG3O1     5    76.929300   205.183360   0.00000000         0.00
  NG2R62   CG2R64    SG3O2     5   103.757400   241.082080   0.00000000         0.00
  NG2R62   CG2R64     FGR1     5   110.497800   639.147840   0.00000000         0.00
  NG2R62   CG2R64    HGR62     5   116.000000   317.984000   0.00000000         0.00
  NG2R67   CG2R64    HGR62     5   119.000000   669.440000   0.00000000         0.00
  NG2RC0   CG2R64    SG311     5   121.800000   167.360000   0.00000000         0.00
   NG2S3   CG2R64   OG3R60     5   109.454500   683.665600   0.00000000         0.00
  CG2R61   CG2R66   CG2R61     5   122.500000   334.720000   0.24162000     29288.00
  CG2R61   CG2R66   CG2R62     5   122.500000   334.720000   0.24162000     29288.00
  CG2R61   CG2R66   CG2R63     5   122.500000   334.720000   0.24162000     29288.00
  CG2R61   CG2R66   CG2R64     5   122.500000   334.720000   0.24162000     29288.00
  CG2R61   CG2R66   CG2R66     5   122.500000   334.720000   0.24162000     29288.00
  CG2R61   CG2R66   CG2R67     5   122.500000   334.720000   0.24162000     29288.00
  CG2R61   CG2R66   CG2RC0     5   122.500000   334.720000   0.24162000     29288.00
  CG2R61   CG2R66   NG2R60     5   124.000000   167.360000   0.00000000         0.00
  CG2R61   CG2R66   NG2R62     5   124.000000   167.360000   0.00000000         0.00
  CG2R61   CG2R66   NG2RC0     5   121.400000   836.800000   0.00000000         0.00
  CG2R61   CG2R66     FGR1     5   118.750000   502.080000   0.00000000         0.00
  CG2R62   CG2R66   CG2R63     5   122.500000   334.720000   0.24162000     29288.00
  CG2R62   CG2R66   NG2R61     5   120.000000  1046.000000   0.00000000         0.00
  CG2R62   CG2R66     FGR1     5   118.750000   502.080000   0.00000000         0.00
  CG2R63   CG2R66     FGR1     5   118.750000   502.080000   0.00000000         0.00
  CG2R64   CG2R66     FGR1     5   118.750000   502.080000   0.00000000         0.00
  CG2R66   CG2R66   CG2R66     5   122.500000   334.720000   0.24162000     29288.00
  CG2R66   CG2R66   CG2RC0     5   104.874400   245.768160   0.00000000         0.00
  CG2R66   CG2R66   NG2R60     5   124.000000   167.360000   0.00000000         0.00
  CG2R66   CG2R66     FGR1     5   118.750000   502.080000   0.00000000         0.00
  CG2R67   CG2R66     FGR1     5   118.750000   502.080000   0.00000000         0.00
  CG2RC0   CG2R66     FGR1     5   118.750000   502.080000   0.00000000         0.00
  NG2R60   CG2R66     FGR1     5   118.230600   591.199200   0.00000000         0.00
  NG2R61   CG2R66     FGR1     5   110.184400   548.606080   0.00000000         0.00
  NG2R62   CG2R66     FGR1     5   111.780300   665.172320   0.00000000         0.00
  NG2RC0   CG2R66     FGR1     5   100.269700   404.592800   0.00000000         0.00
  CG2R61   CG2R67   CG2R61     5   120.000000   334.720000   0.00000000         0.00
  CG2R61   CG2R67   CG2R62     5   120.000000   334.720000   0.00000000         0.00
  CG2R61   CG2R67   CG2R64     5   120.000000   334.720000   0.00000000         0.00
  CG2R61   CG2R67   CG2R66     5   120.000000   334.720000   0.00000000         0.00
  CG2R61   CG2R67   CG2R67     5   120.000000   334.720000   0.00000000         0.00
  CG2R61   CG2R67   CG2RC0     5   120.000000   418.400000   0.00000000         0.00
  CG2R61   CG2R67   NG2R60     5   126.800000   485.344000   0.00000000         0.00
  CG2R61   CG2R67   NG2R67     5   120.000000   418.400000   0.00000000         0.00
  CG2R62   CG2R67   CG2R62     5   120.000000   334.720000   0.00000000         0.00
  CG2R62   CG2R67   CG2R67     5   120.000000   334.720000   0.00000000         0.00
  CG2R62   CG2R67   CG2RC0     5   120.000000   418.400000   0.00000000         0.00
  CG2R62   CG2R67   NG2R61     5   125.455700   766.257760   0.00000000         0.00
  CG2R62   CG2R67   NG2RC0     5   138.387900   385.179040   0.00000000         0.00
  CG2R64   CG2R67   CG2R67     5   120.000000   334.720000   0.00000000         0.00
  CG2R66   CG2R67   CG2R67     5   120.000000   334.720000   0.00000000         0.00
  CG2R66   CG2R67   NG2R60     5   126.800000   485.344000   0.00000000         0.00
  CG2R67   CG2R67   CG2RC0     5   110.000000   460.240000   0.00000000         0.00
  CG2R67   CG2R67   NG2R60     5   113.200000   368.192000   0.00000000         0.00
  CG2R67   CG2R67   NG2R61     5    97.813900   307.858720   0.00000000         0.00
  CG2R67   CG2R67   NG2R62     5   113.200000   368.192000   0.00000000         0.00
  CG2R67   CG2R67   OG3R60     5   104.399800   487.854400   0.00000000         0.00
  CG2RC0   CG2R67   CG2RC0     5   117.663600    11.296800   0.00000000         0.00
  CG2RC0   CG2R67   NG2R60     5   122.450800   413.630240   0.00000000         0.00
  CG2RC0   CG2R67   NG2R62     5   108.124100   208.614240   0.00000000         0.00
  NG2R60   CG2R67   NG2R67     5   113.333200   406.517440   0.00000000         0.00
  NG2R60   CG2R67   OG3R60     5   133.279300   491.536320   0.00000000         0.00
  NG2RC0   CG2R67   NG2RC0     5    92.741500   444.424480   0.00000000         0.00
  CG2R61   CG2R71    NG2P1     5   137.410000   392.710240   0.00000000         0.00
  CG2R71   CG2R71   CG2R71     5   128.600000   251.040000   0.00000000         0.00
  CG2R71   CG2R71   CG2RC7     5   129.300000   753.120000   0.00000000         0.00
  CG2R71   CG2R71    OG2D3     5   146.457200   465.679200   0.00000000         0.00
  CG2R71   CG2R71    SG2D1     5   133.715900   282.336320   0.00000000         0.00
  CG2R71   CG2R71    SG311     5   132.330300   295.055680   0.00000000         0.00
  CG2R71   CG2R71    HGR71     5   115.700000   309.616000   0.00000000         0.00
  CG2RC7   CG2R71    NG2S1     5   112.045500   674.544480   0.00000000         0.00
  CG2RC7   CG2R71    OG2D1     5   136.734000   513.878880   0.00000000         0.00
  CG2RC7   CG2R71    OG2D3     5   141.054700   469.444800   0.00000000         0.00
  CG2RC7   CG2R71    HGR71     5   115.000000   267.776000   0.00000000         0.00
   CG331   CG2R71    NG2D1     5   123.041900   409.362560   0.00000000         0.00
   CG331   CG2R71    NG3N1     5   116.520700   344.928960   0.00000000         0.00
   NG2D1   CG2R71    NG3N1     5   125.239100   702.409920   0.00000000         0.00
   NG2P1   CG2R71    NG2P1     5   144.160900   703.581440   0.00000000         0.00
   NG2S1   CG2R71    OG2D1     5   136.711900   589.358240   0.00000000         0.00
  CG251O   CG2RC0   CG2R61     5   125.000000   334.720000   0.00000000         0.00
  CG251O   CG2RC0   CG2RC0     5   107.000000   167.360000   0.00000000         0.00
  CG252O   CG2RC0   CG2R61     5   125.000000   334.720000   0.00000000         0.00
  CG252O   CG2RC0   CG2RC0     5   107.000000   167.360000   0.00000000         0.00
  CG25C1   CG2RC0   CG2R61     5   125.000000   334.720000   0.00000000         0.00
  CG25C1   CG2RC0   CG2RC0     5   107.000000   167.360000   0.00000000         0.00
  CG25C2   CG2RC0   CG2R61     5   125.000000   334.720000   0.00000000         0.00
  CG25C2   CG2RC0   CG2RC0     5   107.000000   167.360000   0.00000000         0.00
  CG2DC1   CG2RC0   CG2RC0     5   125.000000   418.400000   0.00000000         0.00
  CG2DC1   CG2RC0    NG2D1     5   140.000000   669.440000   0.00000000         0.00
  CG2DC2   CG2RC0   CG2RC0     5   125.000000   418.400000   0.00000000         0.00
  CG2DC2   CG2RC0    NG2D1     5   140.000000   669.440000   0.00000000         0.00
   CG2O4   CG2RC0   CG2RC0     5    95.000000   461.411520   0.00000000         0.00
   CG2O4   CG2RC0    NG311     5   140.000000   490.113760   0.00000000         0.00
  CG2R51   CG2RC0   CG2R61     5   132.000000  1087.840000   0.00000000         0.00
  CG2R51   CG2RC0   CG2R62     5   132.000000  1087.840000   0.00000000         0.00
  CG2R51   CG2RC0   CG2R63     5   132.000000  1087.840000   0.00000000         0.00
  CG2R51   CG2RC0   CG2R64     5   132.000000  1087.840000   0.00000000         0.00
  CG2R51   CG2RC0   CG2R66     5   132.000000  1087.840000   0.00000000         0.00
  CG2R51   CG2RC0   CG2RC0     5   108.000000   711.280000   0.00000000         0.00
  CG2R51   CG2RC0   NG2R52     5   119.895500   348.276160   0.00000000         0.00
  CG2R51   CG2RC0   NG2R61     5   139.783900    92.299040   0.00000000         0.00
  CG2R51   CG2RC0   NG2R62     5   133.719400   461.913600   0.00000000         0.00
  CG2R51   CG2RC0   NG2RC0     5   109.200000   753.120000   0.00000000         0.00
  CG2R52   CG2RC0   CG2R61     5   134.100000   502.080000   0.00000000         0.00
  CG2R52   CG2RC0   CG2R62     5   134.100000   502.080000   0.00000000         0.00
  CG2R52   CG2RC0   CG2R63     5   132.000000  1087.840000   0.00000000         0.00
  CG2R52   CG2RC0   CG2R64     5   132.000000  1087.840000   0.00000000         0.00
  CG2R52   CG2RC0   CG2R66     5   134.100000   502.080000   0.00000000         0.00
  CG2R52   CG2RC0   CG2RC0     5   105.900000   753.120000   0.00000000         0.00
  CG2R52   CG2RC0   NG2R62     5   125.884400    12.552000   0.00000000         0.00
  CG2R53   CG2RC0   CG2R61     5   134.100000   502.080000   0.00000000         0.00
  CG2R53   CG2RC0   CG2R62     5   134.100000   502.080000   0.00000000         0.00
  CG2R53   CG2RC0   CG2R66     5   132.000000  1087.840000   0.00000000         0.00
  CG2R53   CG2RC0   CG2RC0     5   105.900000   753.120000   0.00000000         0.00
  CG2R57   CG2RC0   CG2R61     5   132.000000  1087.840000   0.00000000         0.00
  CG2R57   CG2RC0   CG2RC0     5   108.000000   711.280000   0.00000000         0.00
  CG2R57   CG2RC0   NG2RC0     5   109.200000   753.120000   0.00000000         0.00
  CG2R61   CG2RC0   CG2R67     5   120.000000   418.400000   0.00000000         0.00
  CG2R61   CG2RC0   CG2RC0     5   120.000000   418.400000   0.00000000         0.00
  CG2R61   CG2RC0   CG3C31     5   117.306400   216.229120   0.00000000         0.00
  CG2R61   CG2RC0   CG3C41     5   140.000000   334.720000   0.00000000         0.00
  CG2R61   CG2RC0   CG3C50     5   130.000000   418.400000   0.00000000         0.00
  CG2R61   CG2RC0   CG3C51     5   130.000000   502.080000   0.00000000         0.00
  CG2R61   CG2RC0   CG3C52     5   130.000000   502.080000   0.00000000         0.00
  CG2R61   CG2RC0   CG3C53     5   116.072000   340.744960   0.00000000         0.00
  CG2R61   CG2RC0   CG3RC1     5   125.761400   370.869760   0.00000000         0.00
  CG2R61   CG2RC0   NG2R50     5   130.000000  1087.840000   0.00000000         0.00
  CG2R61   CG2RC0   NG2R51     5   132.600000  1087.840000   0.00000000         0.00
  CG2R61   CG2RC0   NG2R52     5   130.000000  1087.840000   0.00000000         0.00
  CG2R61   CG2RC0   NG2R53     5   130.000000   418.400000   0.00000000         0.00
  CG2R61   CG2RC0   NG2R57     5   132.600000  1087.840000   0.00000000         0.00
  CG2R61   CG2RC0   NG2RC0     5   118.800000   669.440000   0.00000000         0.00
  CG2R61   CG2RC0    NG2S0     5   114.327700   343.841120   0.00000000         0.00
  CG2R61   CG2RC0   NG3C51     5   130.700000   292.880000   0.00000000         0.00
  CG2R61   CG2RC0   OG2R50     5   129.400000   836.800000   0.00000000         0.00
  CG2R61   CG2RC0   OG3C51     5   125.300000   418.400000   0.00000000         0.00
  CG2R61   CG2RC0   SG2R50     5   123.700000   376.560000   0.00000000         0.00
  CG2R61   CG2RC0    SG311     5   124.644000   168.280480   0.00000000         0.00
  CG2R61   CG2RC0    SG3O2     5   128.439200   116.147840   0.00000000         0.00
  CG2R61   CG2RC0    BG201     5   130.700000   292.880000   0.00000000         0.00
  CG2R62   CG2RC0   CG2R67     5   120.000000   418.400000   0.00000000         0.00
  CG2R62   CG2RC0   CG2RC0     5   120.000000   418.400000   0.00000000         0.00
  CG2R62   CG2RC0   CG3C52     5   130.000000   502.080000   0.00000000         0.00
  CG2R62   CG2RC0   NG2R51     5   132.600000  1087.840000   0.00000000         0.00
  CG2R62   CG2RC0   NG2R52     5   130.000000  1087.840000   0.00000000         0.00
  CG2R62   CG2RC0   NG2R61     5   128.815400   346.686240   0.00000000         0.00
  CG2R62   CG2RC0   NG2RC0     5   118.800000   669.440000   0.00000000         0.00
  CG2R62   CG2RC0   NG3C51     5   130.700000   292.880000   0.00000000         0.00
  CG2R62   CG2RC0   OG2R50     5   129.400000   836.800000   0.00000000         0.00
  CG2R63   CG2RC0   CG2RC0     5   119.600000   585.760000   0.00000000         0.00
  CG2R63   CG2RC0   CG3C54     5   124.052200   124.264800   0.00000000         0.00
  CG2R63   CG2RC0   NG2R50     5   129.000000  1046.000000   0.00000000         0.00
  CG2R63   CG2RC0   NG2R51     5   110.992900   161.669760   0.00000000         0.00
  CG2R63   CG2RC0   NG2R52     5   126.500000   711.280000   0.00000000         0.00
  CG2R63   CG2RC0   NG2RC0     5   118.800000   669.440000   0.00000000         0.00
  CG2R63   CG2RC0   SG2R50     5   123.700000   376.560000   0.00000000         0.00
  CG2R64   CG2RC0   CG2RC0     5   121.000000   502.080000   0.00000000         0.00
  CG2R64   CG2RC0   CG3C52     5   130.000000   502.080000   0.00000000         0.00
  CG2R64   CG2RC0   NG2R50     5   129.000000   836.800000   0.00000000         0.00
  CG2R64   CG2RC0   NG2R51     5   132.600000  1087.840000   0.00000000         0.00
  CG2R64   CG2RC0   NG2R52     5   126.500000   711.280000   0.00000000         0.00
  CG2R64   CG2RC0   NG2RC0     5   118.800000   669.440000   0.00000000         0.00
  CG2R66   CG2RC0   CG2RC0     5   120.000000   418.400000   0.00000000         0.00
  CG2R66   CG2RC0   CG3C50     5   130.000000   418.400000   0.00000000         0.00
  CG2R66   CG2RC0   CG3C51     5   130.000000   502.080000   0.00000000         0.00
  CG2R66   CG2RC0   CG3C52     5   130.000000   502.080000   0.00000000         0.00
  CG2R66   CG2RC0   CG3C53     5   121.955500   266.437120   0.00000000         0.00
  CG2R66   CG2RC0   NG2R50     5   130.000000  1087.840000   0.00000000         0.00
  CG2R66   CG2RC0   NG2R51     5   132.188200    10.878400   0.00000000         0.00
  CG2R66   CG2RC0   NG2RC0     5   118.800000   669.440000   0.00000000         0.00
  CG2R66   CG2RC0   NG3C51     5   130.700000   292.880000   0.00000000         0.00
  CG2R66   CG2RC0   OG2R50     5   129.400000   836.800000   0.00000000         0.00
  CG2R67   CG2RC0   CG2RC0     5   109.895000   420.743040   0.00000000         0.00
  CG2R67   CG2RC0   CG3C31     5   102.855000   706.259200   0.00000000         0.00
  CG2R67   CG2RC0   CG3C50     5   101.223400   846.925280   0.00000000         0.00
  CG2R67   CG2RC0   CG3C51     5   110.000000   920.480000   0.00000000         0.00
  CG2R67   CG2RC0   CG3C52     5   110.000000   920.480000   0.00000000         0.00
  CG2R67   CG2RC0   CG3C53     5   103.631800   742.325280   0.00000000         0.00
  CG2R67   CG2RC0   CG3RC1     5   110.000000   920.480000   0.00000000         0.00
  CG2R67   CG2RC0   NG2R50     5   124.121500   538.397120   0.00000000         0.00
  CG2R67   CG2RC0   NG2R51     5   105.700000   836.800000   0.00000000         0.00
  CG2R67   CG2RC0   OG2R50     5   114.451600   661.490400   0.00000000         0.00
  CG2R67   CG2RC0   SG2R50     5   113.588900   632.453440   0.00000000         0.00
  CG2RC0   CG2RC0   CG2RC0     5   104.415100   274.637760   0.00000000         0.00
  CG2RC0   CG2RC0   CG3C41     5    95.000000   383.254400   0.00000000         0.00
  CG2RC0   CG2RC0   CG3C50     5   110.000000   585.760000   0.00000000         0.00
  CG2RC0   CG2RC0   CG3C51     5   110.000000   920.480000   0.00000000         0.00
  CG2RC0   CG2RC0   CG3C52     5   110.000000   920.480000   0.00000000         0.00
  CG2RC0   CG2RC0   CG3C53     5   113.698000   270.286400   0.00000000         0.00
  CG2RC0   CG2RC0   CG3C54     5   112.832100   593.960640   0.00000000         0.00
  CG2RC0   CG2RC0   CG3RC1     5   105.109200   463.921920   0.00000000         0.00
  CG2RC0   CG2RC0    NG2D1     5    95.000000   461.411520   0.00000000         0.00
  CG2RC0   CG2RC0   NG2R50     5   110.000000   836.800000   0.00000000         0.00
  CG2RC0   CG2RC0   NG2R51     5   105.700000   836.800000   0.00000000         0.00
  CG2RC0   CG2RC0   NG2R52     5   106.900000   602.496000   0.00000000         0.00
  CG2RC0   CG2RC0   NG2R53     5   110.000000   585.760000   0.00000000         0.00
  CG2RC0   CG2RC0   NG2R57     5   105.700000   836.800000   0.00000000         0.00
  CG2RC0   CG2RC0   NG2R60     5   127.400000   502.080000   0.00000000         0.00
  CG2RC0   CG2RC0   NG2R61     5   127.400000   493.712000   0.00000000         0.00
  CG2RC0   CG2RC0   NG2R62     5   127.400000   502.080000   0.00000000         0.00
  CG2RC0   CG2RC0   NG2R67     5   154.590900   363.756960   0.00000000         0.00
  CG2RC0   CG2RC0    NG2S0     5   106.037400   461.411520   0.00000000         0.00
  CG2RC0   CG2RC0    NG311     5    95.000000   383.254400   0.00000000         0.00
  CG2RC0   CG2RC0   NG3C51     5   109.300000   836.800000   0.00000000         0.00
  CG2RC0   CG2RC0   OG2R50     5   110.600000   920.480000   0.00000000         0.00
  CG2RC0   CG2RC0   OG3C51     5   114.700000   669.440000   0.00000000         0.00
  CG2RC0   CG2RC0   SG2R50     5   116.300000   585.760000   0.00000000         0.00
  CG2RC0   CG2RC0    SG311     5    99.279500   610.780320   0.00000000         0.00
  CG2RC0   CG2RC0    SG3O2     5   110.661700   311.289600   0.00000000         0.00
  CG2RC0   CG2RC0    BG201     5   109.300000   836.800000   0.00000000         0.00
  CG2RC0   CG2RC0     HGA4     5   133.000000   383.254400   0.00000000         0.00
  CG3C51   CG2RC0   NG2R61     5   114.274900   814.624800   0.00000000         0.00
  CG3C52   CG2RC0   NG2R61     5   114.263400   132.800160   0.00000000         0.00
  CG3C52   CG2RC0   NG2R62     5   125.583300   366.685760   0.00000000         0.00
  CG3C52   CG2RC0   NG2RC0     5   123.763200   872.866080   0.00000000         0.00
  CG3C54   CG2RC0   NG2R62     5   117.371600   384.593280   0.00000000         0.00
  CG3RC1   CG2RC0     HGA4     5   133.000000   383.254400   0.00000000         0.00
   NG2D1   CG2RC0     HGA4     5   126.600000   292.880000   0.00000000         0.00
  NG2R50   CG2RC0   NG2R61     5   131.000000   167.360000   0.00000000         0.00
  NG2R50   CG2RC0   NG2R62     5   122.600000   167.360000   0.00000000         0.00
  NG2R50   CG2RC0   NG2RC0     5   112.600000  1171.520000   0.00000000         0.00
  NG2R51   CG2RC0   NG2R60     5   126.900000   836.800000   0.00000000         0.00
  NG2R51   CG2RC0   NG2R61     5   126.900000   836.800000   0.00000000         0.00
  NG2R51   CG2RC0   NG2R62     5   126.900000   836.800000   0.00000000         0.00
  NG2R51   CG2RC0   NG2R67     5   127.157200    51.881600   0.00000000         0.00
  NG2R52   CG2RC0   NG2R52     5   118.506600   275.641920   0.00000000         0.00
  NG2R52   CG2RC0   NG2R61     5   133.544800   429.529440   0.00000000         0.00
  NG2R52   CG2RC0   NG2R62     5   126.900000   602.496000   0.00000000         0.00
  NG2R52   CG2RC0   NG2RC0     5   108.981200   384.174880   0.00000000         0.00
  NG2R61   CG2RC0   NG2R61     5   116.132800   572.287520   0.00000000         0.00
  NG2R61   CG2RC0   NG2R62     5   134.153200   384.174880   0.00000000         0.00
  NG2R61   CG2RC0   NG2RC0     5   116.400000   569.024000   0.00000000         0.00
  NG2R61   CG2RC0   NG3C51     5   113.107700   535.133600   0.00000000         0.00
  NG2R61   CG2RC0   SG2R50     5   115.420900   230.454720   0.00000000         0.00
  NG2R61   CG2RC0    SG311     5   105.175600   650.193600   0.00000000         0.00
  NG2R62   CG2RC0   NG2RC0     5   124.812400    61.839520   0.00000000         0.00
  NG2R62   CG2RC0   NG3C51     5   119.122100   485.009280   0.00000000         0.00
  NG2R62   CG2RC0   OG2R50     5   112.218200   366.267360   0.00000000         0.00
  NG2R62   CG2RC0   OG3C51     5   120.433400   416.391680   0.00000000         0.00
  NG2R62   CG2RC0   SG2R50     5   124.560700   435.052320   0.00000000         0.00
  NG2R62   CG2RC0    SG311     5   118.282400   282.168960   0.00000000         0.00
  NG2RC0   CG2RC0   SG2R50     5   121.292300   568.689280   0.00000000         0.00
  CG2R51   CG2RC7   CG2R53     5   105.871500   649.189440   0.00000000         0.00
  CG2R51   CG2RC7   CG2R71     5   122.700000   251.040000   0.00000000         0.00
  CG2R51   CG2RC7   CG2RC7     5   109.500000   920.480000   0.00000000         0.00
  CG2R53   CG2RC7   CG2R71     5   122.700000   251.040000   0.00000000         0.00
  CG2R71   CG2RC7   CG2RC7     5   127.800000   251.040000   0.00000000         0.00
  CG2R71   CG2RC7   NG2R50     5   113.178000   312.795840   0.00000000         0.00
  CG2R71   CG2RC7   OG2R50     5   106.408500   411.036160   0.00000000         0.00
  CG2R71   CG2RC7   OG3C51     5   113.690600   467.018080   0.00000000         0.00
  CG2RC7   CG2RC7   NG2R50     5   115.378400   670.276800   0.00000000         0.00
  CG2RC7   CG2RC7   OG2R50     5   112.897400   865.418560   0.00000000         0.00
  CG2RC7   CG2RC7   OG3C51     5   106.757900   557.559840   0.00000000         0.00
   CG1N1    CG301   CG2DC1     5   108.836600   294.302560   0.00000000         0.00
   CG1N1    CG301   CG2DC2     5   108.836600   294.302560   0.00000000         0.00
   CG1N1    CG301    CG311     5   104.137600   207.442720   0.00000000         0.00
   CG1N1    CG301    CG321     5   107.412500   406.433760   0.00000000         0.00
   CG1T1    CG301   CG2R53     5   112.031700   479.319040   0.00000000         0.00
   CG1T1    CG301    CG331     5   112.055800   396.057440   0.00000000         0.00
   CG1T1    CG301    OG311     5   111.191100   547.350880   0.00000000         0.00
   CG2D1    CG301    CG301     5   112.200000   267.776000   0.00000000         0.00
   CG2D1    CG301    CG311     5   112.200000   267.776000   0.00000000         0.00
   CG2D1    CG301    CG321     5   112.200000   267.776000   0.00000000         0.00
   CG2D1    CG301    CG331     5   112.200000   267.776000   0.00000000         0.00
   CG2D1    CG301    NG301     5   116.561000   439.487360   0.00000000         0.00
   CG2D1    CG301    OG301     5   108.102500   574.714240   0.00000000         0.00
   CG2D1    CG301    OG311     5   113.439900   539.736000   0.00000000         0.00
   CG2D1    CG301   OG3C61     5   107.216600   610.361920   0.00000000         0.00
  CG2DC1    CG301    CG301     5   112.200000   267.776000   0.00000000         0.00
  CG2DC1    CG301    CG311     5   112.200000   267.776000   0.00000000         0.00
  CG2DC1    CG301    CG321     5   112.200000   267.776000   0.00000000         0.00
  CG2DC1    CG301    CG331     5   112.200000   267.776000   0.00000000         0.00
  CG2DC1    CG301    NG311     5    99.875600   376.643680   0.00000000         0.00
  CG2DC1    CG301    OG311     5   104.719900   404.509120   0.00000000         0.00
  CG2DC1    CG301   OG3C61     5   114.539600   535.970400   0.00000000         0.00
  CG2DC2    CG301    CG301     5   112.200000   267.776000   0.00000000         0.00
  CG2DC2    CG301    CG311     5   112.200000   267.776000   0.00000000         0.00
  CG2DC2    CG301    CG321     5   112.200000   267.776000   0.00000000         0.00
  CG2DC2    CG301    CG331     5   112.200000   267.776000   0.00000000         0.00
  CG2DC2    CG301    NG311     5    99.875600   376.643680   0.00000000         0.00
  CG2DC2    CG301    OG311     5   104.719900   404.509120   0.00000000         0.00
  CG2DC2    CG301   OG3C61     5   114.539600   535.970400   0.00000000         0.00
   CG2N2    CG301   CG2R51     5   112.290900   234.052960   0.00000000         0.00
   CG2N2    CG301    CG331     5   105.139300   270.370080   0.00000000         0.00
   CG2O1    CG301    CG311     5   108.000000   435.136000   0.00000000         0.00
   CG2O1    CG301    CG321     5   108.000000   435.136000   0.00000000         0.00
   CG2O1    CG301    CG324     5   102.629600   308.946560   0.00000000         0.00
   CG2O1    CG301    CG331     5   108.000000   435.136000   0.00000000         0.00
   CG2O1    CG301   CG3RC1     5   112.744400   391.706080   0.00000000         0.00
   CG2O1    CG301    NG2S0     5   107.000000   418.400000   0.00000000         0.00
   CG2O1    CG301    NG3P1     5   103.078500   353.213280   0.00000000         0.00
   CG2O1    CG301    OG311     5   111.000000   937.216000   0.00000000         0.00
   CG2O1    CG301    SG3O2     5   109.924000   190.120960   0.00000000         0.00
   CG2O2    CG301    CG311     5   108.000000   435.136000   0.00000000         0.00
   CG2O2    CG301    CG321     5   108.000000   435.136000   0.00000000         0.00
   CG2O2    CG301    CG331     5   108.000000   435.136000   0.00000000         0.00
   CG2O2    CG301    NG321     5   110.000000   365.681600   0.00000000         0.00
   CG2O3    CG301    CG2O5     5    97.361900   232.128320   0.00000000         0.00
   CG2O3    CG301    CG321     5   108.000000   435.136000   0.00000000         0.00
   CG2O3    CG301    CG324     5   103.878200   272.294720   0.00000000         0.00
   CG2O3    CG301    CG331     5   108.000000   435.136000   0.00000000         0.00
   CG2O3    CG301    OG301     5   109.000000   376.560000   0.00000000         0.00
   CG2O3    CG301    OG303     5   109.000000   376.560000   0.00000000         0.00
   CG2O3    CG301    OG311     5   110.100000   633.457600   0.00000000         0.00
   CG2O3    CG301   OG3C61     5   109.000000   376.560000   0.00000000         0.00
   CG2O3    CG301    SG311     5   103.430000   544.254720   0.00000000         0.00
   CG2O5    CG301    CG321     5   108.000000   435.136000   0.00000000         0.00
   CG2O5    CG301    CG331     5   108.000000   435.136000   0.00000000         0.00
   CG2O5    CG301   CG3C51     5   103.103000   561.409120   0.00000000         0.00
   CG2O5    CG301    OG311     5   111.000000   937.216000   0.00000000         0.00
  CG2R51    CG301    CG311     5   114.000000   488.272800   0.00000000         0.00
  CG2R51    CG301    CG321     5   114.000000   488.272800   0.00000000         0.00
  CG2R51    CG301    CG324     5   113.692100   372.543360   0.00000000         0.00
  CG2R51    CG301    CG331     5   114.000000   488.272800   0.00000000         0.00
  CG2R51    CG301    NG2S0     5   108.607600   502.916800   0.00000000         0.00
  CG2R51    CG301    NG311     5   110.901100   505.343520   0.00000000         0.00
  CG2R51    CG301    NG321     5   115.191500   639.733600   0.00000000         0.00
  CG2R51    CG301    OG311     5   107.750000   624.671200   0.00000000         0.00
  CG2R52    CG301    CG321     5   111.000000   493.712000   0.00000000         0.00
  CG2R52    CG301    CG324     5   104.977200   418.567360   0.00000000         0.00
  CG2R52    CG301    CG331     5   107.500000   433.462400   0.00000000         0.00
  CG2R53    CG301    CG321     5   111.000000   493.712000   0.00000000         0.00
  CG2R53    CG301    CG331     5   111.000000   493.712000   0.00000000         0.00
  CG2R53    CG301    NG2S1     5   107.920000   456.558080   0.00000000         0.00
  CG2R53    CG301    NG321     5    96.035100   580.990240   0.00000000         0.00
  CG2R53    CG301    OG311     5    99.601900   474.549280   0.00000000         0.00
  CG2R61    CG301    CG301     5   107.500000   433.462400   0.00000000         0.00
  CG2R61    CG301    CG321     5   107.500000   433.462400   0.00000000         0.00
  CG2R61    CG301    CG324     5   108.377100   399.823040   0.00000000         0.00
  CG2R61    CG301    CG331     5   107.500000   433.462400   0.00000000         0.00
  CG2R61    CG301    NG2S1     5   100.833600   510.029600   0.00000000         0.00
  CG2R61    CG301    OG311     5   112.800000   686.176000   0.00000000         0.00
  CG2R62    CG301    CG331     5   107.500000   433.462400   0.00000000         0.00
  CG2R64    CG301    CG331     5   107.500000   433.462400   0.00000000         0.00
  CG2R64    CG301    NG321     5    88.763500   509.276480   0.00000000         0.00
   CG301    CG301    CG301     5   113.500000   488.272800   0.25610000      9338.69
   CG301    CG301    CG321     5   113.500000   488.272800   0.25610000      9338.69
   CG301    CG301    CG331     5   113.500000   488.272800   0.25610000      9338.69
   CG301    CG301    OG311     5   110.100000   633.457600   0.00000000         0.00
   CG301    CG301   OG3C61     5   114.500000   380.744000   0.00000000         0.00
   CG302    CG301    CG321     5   108.650000   446.432800   0.24926000      6660.93
   CG302    CG301    OG311     5   107.774700   406.601120   0.00000000         0.00
   CG302    CG301   OG3C61     5   102.736900   484.339840   0.00000000         0.00
   CG311    CG301    CG311     5   113.500000   488.272800   0.25610000      9338.69
   CG311    CG301    CG321     5   113.500000   488.272800   0.25610000      9338.69
   CG311    CG301    CG324     5   110.500000   488.272800   0.25610000      9338.69
   CG311    CG301    CG331     5   113.500000   488.272800   0.25610000      9338.69
   CG311    CG301   CG3RC1     5   103.700000   446.432800   0.25610000      6694.40
   CG311    CG301    NG2S0     5   108.000000   585.760000   0.00000000         0.00
   CG311    CG301    NG2S1     5   113.500000   585.760000   0.00000000         0.00
   CG311    CG301    NG321     5   111.200000   610.864000   0.00000000         0.00
   CG311    CG301    OG311     5   110.100000   633.457600   0.00000000         0.00
   CG311    CG301   OG3C61     5   114.500000   380.744000   0.00000000         0.00
   CG311    CG301   OG3R60     5   114.500000   380.744000   0.00000000         0.00
   CG312    CG301    CG324     5   116.337800   299.574400   0.00000000         0.00
   CG312    CG301    CG331     5   111.980000   444.340800   0.25015000      6694.40
   CG314    CG301    CG321     5   111.000000   446.432800   0.25610000      6694.40
   CG314    CG301    CG331     5   108.500000   446.432800   0.25610000      6694.40
   CG314    CG301    NG2S1     5   113.500000   585.760000   0.00000000         0.00
   CG314    CG301    OG311     5   112.100000   633.457600   0.00000000         0.00
   CG314    CG301   OG3C61     5   116.749400   400.910880   0.00000000         0.00
   CG314    CG301    SG3O3     5   123.922800   520.322240   0.00000000         0.00
   CG321    CG301    CG321     5   113.500000   488.272800   0.25610000      9338.69
   CG321    CG301    CG322     5   111.980000   444.340800   0.25015000      6694.40
   CG321    CG301    CG324     5   110.500000   488.272800   0.25610000      9338.69
   CG321    CG301    CG331     5   113.500000   488.272800   0.25610000      9338.69
   CG321    CG301   CG3C41     5   113.500000   488.272800   0.25610000      9338.69
   CG321    CG301   CG3C51     5   111.000000   446.432800   0.25610000      6694.40
   CG321    CG301   CG3C53     5   110.278500   472.373600   0.00000000         0.00
   CG321    CG301   CG3RC1     5   103.700000   446.432800   0.25610000      6694.40
   CG321    CG301    NG2D1     5   108.729600   410.785120   0.00000000         0.00
   CG321    CG301    NG2O1     5    98.423100   503.837280   0.00000000         0.00
   CG321    CG301    NG2P1     5   110.000000   566.513600   0.00000000         0.00
   CG321    CG301   NG2R51     5   112.175900   300.160160   0.00000000         0.00
   CG321    CG301    NG2S0     5   108.000000   585.760000   0.00000000         0.00
   CG321    CG301    NG2S1     5   113.500000   585.760000   0.00000000         0.00
   CG321    CG301    NG311     5   112.200000   365.681600   0.00000000         0.00
   CG321    CG301    NG321     5   112.200000   365.681600   0.00000000         0.00
   CG321    CG301    NG3P0     5   110.000000   334.720000   0.00000000         0.00
   CG321    CG301    NG3P2     5   110.000000   334.720000   0.00000000         0.00
   CG321    CG301    NG3P3     5   110.000000   566.513600   0.00000000         0.00
   CG321    CG301    OG301     5   114.500000   380.744000   0.00000000         0.00
   CG321    CG301    OG311     5   110.100000   633.457600   0.00000000         0.00
   CG321    CG301   OG3C61     5   114.500000   380.744000   0.00000000         0.00
   CG321    CG301   OG3R60     5   114.500000   380.744000   0.00000000         0.00
   CG321    CG301    SG311     5   109.230000   534.966240   0.00000000         0.00
   CG321    CG301    SG3O2     5   108.967600   339.155040   0.00000000         0.00
   CG322    CG301    CG331     5   111.980000   444.340800   0.25015000      6694.40
   CG322    CG301    OG311     5    97.348200   496.138720   0.00000000         0.00
   CG324    CG301    CG324     5   103.560300   532.539520   0.00000000         0.00
   CG324    CG301    CG331     5   108.500000   446.432800   0.25610000      6694.40
   CG324    CG301    NG311     5    98.936800   491.285280   0.00000000         0.00
   CG324    CG301    NG321     5    98.490900   546.095680   0.00000000         0.00
   CG324    CG301    OG301     5    98.204500   330.870720   0.00000000         0.00
   CG324    CG301    OG311     5   112.100000   633.457600   0.00000000         0.00
   CG324    CG301   OG3C61     5   100.062700   138.908800   0.00000000         0.00
   CG324    CG301    SG311     5   111.989100   341.832800   0.00000000         0.00
   CG331    CG301    CG331     5   113.500000   488.272800   0.25610000      9338.69
   CG331    CG301   CG3C50     5   108.500000   446.432800   0.25610000      6694.40
   CG331    CG301   CG3C51     5   108.500000   446.432800   0.25610000      6694.40
   CG331    CG301   CG3RC1     5   103.700000   446.432800   0.25610000      6694.40
   CG331    CG301    NG2D1     5   111.228500   520.824320   0.00000000         0.00
   CG331    CG301    NG2P1     5   110.000000   566.513600   0.00000000         0.00
   CG331    CG301   NG2R51     5   107.078600   357.397280   0.00000000         0.00
   CG331    CG301   NG2R53     5   109.915500   462.080960   0.00000000         0.00
   CG331    CG301   NG2R61     5   103.954000   522.079520   0.00000000         0.00
   CG331    CG301    NG2S0     5   113.500000   585.760000   0.00000000         0.00
   CG331    CG301    NG2S1     5   113.500000   585.760000   0.00000000         0.00
   CG331    CG301    NG301     5   113.200000   610.864000   0.00000000         0.00
   CG331    CG301    NG311     5   113.200000   610.864000   0.00000000         0.00
   CG331    CG301    NG321     5   113.200000   610.864000   0.00000000         0.00
   CG331    CG301    NG3P1     5   110.000000   566.513600   0.00000000         0.00
   CG331    CG301    NG3P2     5   110.000000   566.513600   0.00000000         0.00
   CG331    CG301    NG3P3     5   110.000000   566.513600   0.00000000         0.00
   CG331    CG301    OG301     5   111.500000   376.560000   0.00000000         0.00
   CG331    CG301    OG302     5   110.100000   633.457600   0.00000000         0.00
   CG331    CG301    OG303     5   110.100000   633.457600   0.00000000         0.00
   CG331    CG301    OG311     5   110.100000   633.457600   0.00000000         0.00
   CG331    CG301   OG3C61     5   111.500000   376.560000   0.00000000         0.00
   CG331    CG301   OG3R60     5   111.500000   376.560000   0.00000000         0.00
   CG331    CG301    SG311     5   109.230000   534.966240   0.00000000         0.00
   CG331    CG301    SG3O3     5   111.372700   584.504800   0.00000000         0.00
   CG331    CG301    CLGA3     5   111.200000   811.696000   0.00000000         0.00
   CG331    CG301    BRGA3     5   111.200000   820.064000   0.00000000         0.00
  CG3C41    CG301    OG311     5   110.100000   633.457600   0.00000000         0.00
  CG3RC1    CG301    OG311     5   110.100000   633.457600   0.00000000         0.00
   NG2S1    CG301    OG311     5   111.057700   749.689120   0.00000000         0.00
   NG311    CG301    OG311     5   112.516400   751.613760   0.00000000         0.00
   OG301    CG301    OG301     5   107.000000   589.860320   0.00000000         0.00
   OG301    CG301    OG311     5   116.500000   376.560000   0.00000000         0.00
   OG303    CG301    SG311     5   112.280000   513.962560   0.00000000         0.00
   OG311    CG301    OG311     5   116.500000   376.560000   0.00000000         0.00
   OG311    CG301   OG3C61     5   116.500000   376.560000   0.00000000         0.00
   OG311    CG301    SG311     5   112.280000   513.962560   0.00000000         0.00
  OG3C61    CG301   OG3C61     5   105.973600   586.931520   0.00000000         0.00
  OG3C61    CG301   OG3R60     5   105.795000   654.377600   0.00000000         0.00
   CLGA3    CG301    CLGA3     5   109.000000   794.960000   0.00000000         0.00
   BRGA3    CG301    BRGA3     5   110.500000   753.120000   0.00000000         0.00
  CG2R51    CG302     FGA3     5   115.000000   418.400000   0.23570000     25104.00
  CG2R52    CG302     FGA3     5   115.000000   418.400000   0.23570000     25104.00
  CG2R53    CG302     FGA3     5   115.000000   418.400000   0.23570000     25104.00
  CG2R61    CG302     FGA3     5   115.000000   418.400000   0.23570000     25104.00
  CG2R62    CG302     FGA3     5   115.000000   418.400000   0.23570000     25104.00
  CG2R64    CG302     FGA3     5   115.000000   418.400000   0.23570000     25104.00
   CG301    CG302     FGA3     5   112.000000   351.456000   0.23570000     25104.00
   CG311    CG302     FGA3     5   112.000000   351.456000   0.23570000     25104.00
   CG314    CG302     FGA3     5   104.370000   238.488000   0.29305000     18928.42
   CG321    CG302     FGA3     5   112.000000   351.456000   0.23570000     25104.00
   CG331    CG302     FGA3     5   112.000000   351.456000   0.23570000     25104.00
  CG3C50    CG302     FGA3     5   105.458500   472.289920   0.00000000         0.00
  CG3C51    CG302     FGA3     5   106.299400   511.870560   0.00000000         0.00
  CG3RC1    CG302     FGA3     5   112.320800   543.501600   0.00000000         0.00
    FGA3    CG302     FGA3     5   107.000000   987.424000   0.21550000     25104.00
   CG1T1    CG311    CG321     5   113.500000   585.760000   0.00000000         0.00
   CG1T1    CG311    CG324     5   105.597200   372.292320   0.00000000         0.00
   CG1T1    CG311     HGA1     5   111.500000   393.296000   0.00000000         0.00
   CG2D1    CG311    CG2D1     5   114.000000   251.040000   0.00000000         0.00
   CG2D1    CG311   CG2DC1     5   114.000000   251.040000   0.00000000         0.00
   CG2D1    CG311   CG2DC2     5   114.000000   251.040000   0.00000000         0.00
   CG2D1    CG311    CG2O1     5   103.124400   259.408000   0.00000000         0.00
   CG2D1    CG311    CG2O5     5    98.199600   186.522720   0.00000000         0.00
   CG2D1    CG311   CG2R61     5   108.041200   321.080160   0.00000000         0.00
   CG2D1    CG311    CG301     5   112.200000   267.776000   0.00000000         0.00
   CG2D1    CG311    CG311     5   112.200000   267.776000   0.00000000         0.00
   CG2D1    CG311    CG321     5   112.200000   267.776000   0.00000000         0.00
   CG2D1    CG311    CG324     5   115.872600   337.146720   0.00000000         0.00
   CG2D1    CG311    CG331     5   112.200000   267.776000   0.00000000         0.00
   CG2D1    CG311   CG3C50     5   109.799300   294.051520   0.00000000         0.00
   CG2D1    CG311    NG2S1     5   114.446000   471.118400   0.00000000         0.00
   CG2D1    CG311    OG311     5   110.100000   633.457600   0.00000000         0.00
   CG2D1    CG311   OG3C61     5    99.000000   167.360000   0.00000000         0.00
   CG2D1    CG311     HGA1     5   111.500000   376.560000   0.00000000         0.00
  CG2D1O    CG311   CG2D1O     5   114.000000   251.040000   0.00000000         0.00
  CG2D1O    CG311    CG331     5   112.200000   267.776000   0.00000000         0.00
  CG2D1O    CG311     HGA1     5   111.500000   376.560000   0.00000000         0.00
  CG2D2O    CG311   CG2D2O     5   114.000000   251.040000   0.00000000         0.00
  CG2D2O    CG311    CG331     5   112.200000   267.776000   0.00000000         0.00
  CG2D2O    CG311     HGA1     5   111.500000   376.560000   0.00000000         0.00
  CG2DC1    CG311   CG2DC1     5   114.000000   251.040000   0.00000000         0.00
  CG2DC1    CG311    CG2O1     5   118.719600   225.768640   0.00000000         0.00
  CG2DC1    CG311    CG2O2     5   113.263000   668.519520   0.00000000         0.00
  CG2DC1    CG311    CG2O3     5   111.951400   820.649760   0.00000000         0.00
  CG2DC1    CG311    CG311     5   112.200000   267.776000   0.00000000         0.00
  CG2DC1    CG311    CG321     5   112.200000   267.776000   0.00000000         0.00
  CG2DC1    CG311    CG331     5   112.200000   267.776000   0.00000000         0.00
  CG2DC1    CG311   CG3RC1     5   107.986000   321.498560   0.00000000         0.00
  CG2DC1    CG311    NG2S0     5   101.106400   585.760000   0.00000000         0.00
  CG2DC1    CG311    NG2S1     5   114.836000   536.723520   0.00000000         0.00
  CG2DC1    CG311    NG301     5   110.000000   652.704000   0.00000000         0.00
  CG2DC1    CG311    NG311     5   110.000000   652.704000   0.00000000         0.00
  CG2DC1    CG311    OG311     5   110.100000   633.457600   0.00000000         0.00
  CG2DC1    CG311   OG3R60     5    99.000000   167.360000   0.00000000         0.00
  CG2DC1    CG311     HGA1     5   111.500000   376.560000   0.00000000         0.00
  CG2DC2    CG311   CG2DC2     5   114.000000   251.040000   0.00000000         0.00
  CG2DC2    CG311    CG2O1     5   118.719600   225.768640   0.00000000         0.00
  CG2DC2    CG311    CG2O2     5   113.263000   668.519520   0.00000000         0.00
  CG2DC2    CG311    CG2O3     5   111.951400   820.649760   0.00000000         0.00
  CG2DC2    CG311    CG311     5   112.200000   267.776000   0.00000000         0.00
  CG2DC2    CG311    CG321     5   112.200000   267.776000   0.00000000         0.00
  CG2DC2    CG311    CG331     5   112.200000   267.776000   0.00000000         0.00
  CG2DC2    CG311   CG3RC1     5   107.986000   321.498560   0.00000000         0.00
  CG2DC2    CG311    NG2S0     5   101.106400   585.760000   0.00000000         0.00
  CG2DC2    CG311    NG2S1     5   114.836000   536.723520   0.00000000         0.00
  CG2DC2    CG311    NG301     5   110.000000   652.704000   0.00000000         0.00
  CG2DC2    CG311    NG311     5   110.000000   652.704000   0.00000000         0.00
  CG2DC2    CG311    OG311     5   110.100000   633.457600   0.00000000         0.00
  CG2DC2    CG311   OG3R60     5    99.000000   167.360000   0.00000000         0.00
  CG2DC2    CG311     HGA1     5   111.500000   376.560000   0.00000000         0.00
   CG2N2    CG311   CG2R61     5   107.500000   334.720000   0.00000000         0.00
   CG2N2    CG311   OG3C61     5   101.465100   555.300480   0.00000000         0.00
   CG2N2    CG311     HGA1     5   109.500000   418.400000   0.00000000         0.00
   CG2O1    CG311    CG2O1     5   101.209100     8.368000   0.00000000         0.00
   CG2O1    CG311    CG2O3     5   106.780000   355.054240   0.00000000         0.00
   CG2O1    CG311    CG2O5     5   116.228600   214.388160   0.00000000         0.00
   CG2O1    CG311   CG2R51     5   108.549300   383.170720   0.00000000         0.00
   CG2O1    CG311   CG2R61     5   107.500000   334.720000   0.00000000         0.00
   CG2O1    CG311    CG301     5   108.000000   435.136000   0.00000000         0.00
   CG2O1    CG311    CG302     5   101.140900   355.891040   0.00000000         0.00
   CG2O1    CG311    CG311     5   108.000000   435.136000   0.00000000         0.00
   CG2O1    CG311    CG321     5   108.000000   435.136000   0.00000000         0.00
   CG2O1    CG311    CG331     5   108.000000   435.136000   0.00000000         0.00
   CG2O1    CG311    NG2S0     5   107.000000   418.400000   0.00000000         0.00
   CG2O1    CG311    NG2S1     5   107.000000   418.400000   0.00000000         0.00
   CG2O1    CG311    NG301     5   110.000000   365.681600   0.00000000         0.00
   CG2O1    CG311    NG311     5   110.000000   365.681600   0.00000000         0.00
   CG2O1    CG311   NG3C51     5   110.000000   365.681600   0.00000000         0.00
   CG2O1    CG311    OG301     5   109.000000   585.760000   0.00000000         0.00
   CG2O1    CG311    OG311     5   111.000000   937.216000   0.00000000         0.00
   CG2O1    CG311   OG3C61     5   119.079100   649.189440   0.00000000         0.00
   CG2O1    CG311    SG311     5   109.770000   431.872480   0.00000000         0.00
   CG2O1    CG311     HGA1     5   109.500000   418.400000   0.00000000         0.00
   CG2O2    CG311    CG2O3     5   113.990000   340.912320   0.00000000         0.00
   CG2O2    CG311    CG2O5     5   110.770700   385.262720   0.00000000         0.00
   CG2O2    CG311   CG2R53     5   107.500000   334.720000   0.00000000         0.00
   CG2O2    CG311   CG2R61     5   107.500000   334.720000   0.00000000         0.00
   CG2O2    CG311   CG2R62     5   107.500000   334.720000   0.00000000         0.00
   CG2O2    CG311    CG301     5   108.000000   435.136000   0.00000000         0.00
   CG2O2    CG311    CG311     5   108.000000   435.136000   0.00000000         0.00
   CG2O2    CG311    CG321     5   108.000000   435.136000   0.00000000         0.00
   CG2O2    CG311    CG331     5   108.000000   435.136000   0.00000000         0.00
   CG2O2    CG311   CG3RC1     5   109.673900   348.610880   0.00000000         0.00
   CG2O2    CG311   NG2R51     5   111.050000   418.400000   0.00000000         0.00
   CG2O2    CG311   NG2R53     5   107.000000   418.400000   0.00000000         0.00
   CG2O2    CG311    NG2S1     5   107.000000   418.400000   0.00000000         0.00
   CG2O2    CG311    NG321     5   110.000000   365.681600   0.00000000         0.00
   CG2O2    CG311    OG311     5   106.700000   920.480000   0.00000000         0.00
   CG2O2    CG311     HGA1     5   109.500000   418.400000   0.00000000         0.00
   CG2O3    CG311    CG2O3     5   124.900000   380.241920   0.00000000         0.00
   CG2O3    CG311    CG2O5     5   113.990000   340.912320   0.00000000         0.00
   CG2O3    CG311   CG2R51     5   107.500000   433.462400   0.00000000         0.00
   CG2O3    CG311   CG2R53     5   107.500000   433.462400   0.00000000         0.00
   CG2O3    CG311   CG2R61     5   107.500000   433.462400   0.00000000         0.00
   CG2O3    CG311   CG2R62     5   104.500000   485.344000   0.00000000         0.00
   CG2O3    CG311    CG311     5   108.000000   435.136000   0.00000000         0.00
   CG2O3    CG311    CG321     5   108.000000   435.136000   0.00000000         0.00
   CG2O3    CG311    CG324     5   108.000000   435.136000   0.00000000         0.00
   CG2O3    CG311    CG331     5   108.000000   435.136000   0.00000000         0.00
   CG2O3    CG311    NG2D1     5    83.966000   381.915520   0.00000000         0.00
   CG2O3    CG311   NG2R51     5   107.000000   418.400000   0.00000000         0.00
   CG2O3    CG311   NG2R53     5   107.000000   418.400000   0.00000000         0.00
   CG2O3    CG311    NG2S1     5   107.000000   418.400000   0.00000000         0.00
   CG2O3    CG311    OG301     5   109.000000   376.560000   0.00000000         0.00
   CG2O3    CG311    OG302     5   109.000000   376.560000   0.00000000         0.00
   CG2O3    CG311    OG311     5   107.000000   669.440000   0.00000000         0.00
   CG2O3    CG311   OG3C61     5   109.000000   376.560000   0.00000000         0.00
   CG2O3    CG311    SG311     5   105.350000   476.808640   0.00000000         0.00
   CG2O3    CG311     HGA1     5   109.500000   418.400000   0.00000000         0.00
   CG2O4    CG311    CG311     5   108.000000   435.136000   0.00000000         0.00
   CG2O4    CG311    CG321     5   108.000000   435.136000   0.00000000         0.00
   CG2O4    CG311    CG331     5   108.000000   435.136000   0.00000000         0.00
   CG2O4    CG311    NG2S1     5   107.000000   418.400000   0.00000000         0.00
   CG2O4    CG311     HGA1     5   109.500000   418.400000   0.00000000         0.00
   CG2O5    CG311    CG2O5     5   108.054300   214.053440   0.00000000         0.00
   CG2O5    CG311   CG2R61     5   107.500000   334.720000   0.00000000         0.00
   CG2O5    CG311    CG301     5   108.000000   435.136000   0.00000000         0.00
   CG2O5    CG311    CG302     5   104.229400   338.736640   0.00000000         0.00
   CG2O5    CG311    CG311     5   108.000000   435.136000   0.00000000         0.00
   CG2O5    CG311    CG314     5   108.000000   435.136000   0.00000000         0.00
   CG2O5    CG311    CG321     5   108.000000   435.136000   0.00000000         0.00
   CG2O5    CG311    CG324     5   108.000000   435.136000   0.00000000         0.00
   CG2O5    CG311    CG331     5   108.000000   435.136000   0.00000000         0.00
   CG2O5    CG311   NG2R53     5   107.000000   418.400000   0.00000000         0.00
   CG2O5    CG311    NG301     5   110.000000   365.681600   0.00000000         0.00
   CG2O5    CG311    NG311     5   110.000000   365.681600   0.00000000         0.00
   CG2O5    CG311    NG321     5   110.000000   365.681600   0.00000000         0.00
   CG2O5    CG311    OG311     5   111.000000   937.216000   0.00000000         0.00
   CG2O5    CG311    OG312     5   111.000000  1087.840000   0.00000000         0.00
   CG2O5    CG311   OG3C61     5   100.597400   251.207360   0.00000000         0.00
   CG2O5    CG311    SG3O1     5   104.831000   228.111680   0.00000000         0.00
   CG2O5    CG311     HGA1     5   109.500000   418.400000   0.00000000         0.00
  CG2R51    CG311   CG2R51     5   114.000000   488.272800   0.00000000         0.00
  CG2R51    CG311   CG2R61     5   107.500000   433.462400   0.00000000         0.00
  CG2R51    CG311    CG302     5   102.903800   296.561920   0.00000000         0.00
  CG2R51    CG311    CG314     5   114.000000   488.272800   0.00000000         0.00
  CG2R51    CG311    CG321     5   114.000000   488.272800   0.00000000         0.00
  CG2R51    CG311    CG324     5   114.000000   488.272800   0.00000000         0.00
  CG2R51    CG311    CG331     5   114.000000   488.272800   0.00000000         0.00
  CG2R51    CG311    NG2D1     5   102.893000   482.749920   0.00000000         0.00
  CG2R51    CG311   NG2R53     5   107.920000   456.558080   0.00000000         0.00
  CG2R51    CG311    NG2S0     5   107.920000   456.558080   0.00000000         0.00
  CG2R51    CG311    NG2S1     5   107.920000   456.558080   0.00000000         0.00
  CG2R51    CG311    NG301     5   107.000000   476.976000   0.00000000         0.00
  CG2R51    CG311    NG311     5   111.500000   585.760000   0.00000000         0.00
  CG2R51    CG311    NG321     5   110.000000   585.760000   0.00000000         0.00
  CG2R51    CG311    OG301     5    98.950900   399.655680   0.00000000         0.00
  CG2R51    CG311    OG311     5   107.750000   624.671200   0.00000000         0.00
  CG2R51    CG311   OG3C61     5    97.076800   288.361280   0.00000000         0.00
  CG2R51    CG311    SG311     5   108.560000   399.906720   0.27143000       635.97
  CG2R51    CG311     HGA1     5   109.500000   460.240000   0.00000000         0.00
  CG2R52    CG311    CG321     5   111.000000   493.712000   0.00000000         0.00
  CG2R52    CG311    NG2O1     5    98.903500   287.357120   0.00000000         0.00
  CG2R52    CG311    NG321     5   110.000000   585.760000   0.00000000         0.00
  CG2R52    CG311    OG301     5   104.733200   422.751360   0.00000000         0.00
  CG2R52    CG311     HGA1     5   109.500000   460.240000   0.00000000         0.00
  CG2R53    CG311    CG311     5   111.000000   493.712000   0.00000000         0.00
  CG2R53    CG311    CG321     5   111.000000   493.712000   0.00000000         0.00
  CG2R53    CG311    CG324     5   114.000000   488.272800   0.00000000         0.00
  CG2R53    CG311    CG331     5   111.000000   493.712000   0.00000000         0.00
  CG2R53    CG311    NG2S1     5   107.920000   456.558080   0.00000000         0.00
  CG2R53    CG311    NG321     5   110.000000   585.760000   0.00000000         0.00
  CG2R53    CG311     HGA1     5   109.500000   460.240000   0.00000000         0.00
  CG2R61    CG311   CG2R61     5   107.500000   433.462400   0.00000000         0.00
  CG2R61    CG311   CG2R62     5   107.500000   433.462400   0.00000000         0.00
  CG2R61    CG311    CG301     5   107.500000   433.462400   0.00000000         0.00
  CG2R61    CG311    CG311     5   107.500000   433.462400   0.00000000         0.00
  CG2R61    CG311    CG314     5   107.500000   433.462400   0.00000000         0.00
  CG2R61    CG311    CG321     5   107.500000   433.462400   0.00000000         0.00
  CG2R61    CG311    CG331     5   107.500000   433.462400   0.00000000         0.00
  CG2R61    CG311   CG3C31     5   107.500000   433.462400   0.00000000         0.00
  CG2R61    CG311   CG3C51     5   111.065200   309.616000   0.00000000         0.00
  CG2R61    CG311   CG3RC1     5    99.937600   281.248480   0.00000000         0.00
  CG2R61    CG311   NG2R53     5   115.200000   443.504000   0.00000000         0.00
  CG2R61    CG311    NG2S0     5   115.200000   443.504000   0.00000000         0.00
  CG2R61    CG311    NG301     5   109.000000   610.864000   0.00000000         0.00
  CG2R61    CG311    NG311     5   109.000000   610.864000   0.00000000         0.00
  CG2R61    CG311    OG311     5   112.800000   686.176000   0.00000000         0.00
  CG2R61    CG311   OG3C61     5   113.735300   378.568320   0.00000000         0.00
  CG2R61    CG311    SG311     5   108.240000   454.131360   0.00000000         0.00
  CG2R61    CG311    SG3O3     5   104.740000   582.161760   0.27012000      1389.09
  CG2R61    CG311     HGA1     5   111.000000   359.824000   0.00000000         0.00
  CG2R62    CG311    CG311     5   107.500000   433.462400   0.00000000         0.00
  CG2R62    CG311    CG321     5   107.500000   433.462400   0.00000000         0.00
  CG2R62    CG311    CG324     5   107.500000   433.462400   0.00000000         0.00
  CG2R62    CG311    CG331     5   107.090800   267.943360   0.00000000         0.00
  CG2R62    CG311    OG311     5   112.800000   686.176000   0.00000000         0.00
  CG2R62    CG311     HGA1     5   111.000000   359.824000   0.00000000         0.00
  CG2R64    CG311    CG331     5   107.500000   433.462400   0.00000000         0.00
  CG2R64    CG311    OG311     5   112.800000   686.176000   0.00000000         0.00
  CG2R64    CG311     HGA1     5   111.000000   359.824000   0.00000000         0.00
   CG301    CG311    CG301     5   108.000000   435.136000   0.00000000         0.00
   CG301    CG311    CG302     5   108.650000   446.432800   0.24926000      6660.93
   CG301    CG311    CG311     5   108.000000   435.136000   0.00000000         0.00
   CG301    CG311    CG314     5   111.000000   446.432800   0.25610000      6694.40
   CG301    CG311    CG321     5   113.500000   488.272800   0.25610000      9338.69
   CG301    CG311    CG324     5   110.500000   488.272800   0.25610000      9338.69
   CG301    CG311    CG331     5   113.500000   488.272800   0.25610000      9338.69
   CG301    CG311   NG2R61     5   113.500000   585.760000   0.00000000         0.00
   CG301    CG311    NG301     5   111.200000   610.864000   0.00000000         0.00
   CG301    CG311    NG321     5   111.200000   610.864000   0.00000000         0.00
   CG301    CG311    OG311     5   110.100000   633.457600   0.00000000         0.00
   CG301    CG311   OG3C61     5   111.500000   376.560000   0.00000000         0.00
   CG301    CG311     HGA1     5   110.100000   289.532800   0.21790000     18853.10
   CG302    CG311    CG311     5   108.650000   446.432800   0.24926000      6660.93
   CG302    CG311    CG314     5   106.314400   463.838240   0.00000000         0.00
   CG302    CG311    CG321     5   108.650000   446.432800   0.24926000      6660.93
   CG302    CG311    CG324     5   105.391300   435.303360   0.00000000         0.00
   CG302    CG311    CG331     5   108.650000   446.432800   0.24926000      6660.93
   CG302    CG311    NG311     5   107.956400   390.701920   0.00000000         0.00
   CG302    CG311     HGA1     5   110.100000   289.532800   0.21790000     18853.10
   CG311    CG311    CG311     5   111.000000   446.432800   0.25610000      6694.40
   CG311    CG311    CG314     5   111.000000   446.432800   0.25610000      6694.40
   CG311    CG311    CG321     5   111.000000   446.432800   0.25610000      6694.40
   CG311    CG311    CG324     5   110.500000   488.272800   0.25610000      9338.69
   CG311    CG311    CG331     5   108.500000   446.432800   0.25610000      6694.40
   CG311    CG311   CG3C50     5   111.000000   446.432800   0.25610000      6694.40
   CG311    CG311   CG3C51     5   111.000000   446.432800   0.25610000      6694.40
   CG311    CG311   CG3RC1     5   103.700000   446.432800   0.25610000      6694.40
   CG311    CG311    NG2D1     5   112.000000   861.904000   0.00000000         0.00
   CG311    CG311   NG2R51     5   120.000000   585.760000   0.00000000         0.00
   CG311    CG311    NG2S0     5   108.000000   585.760000   0.00000000         0.00
   CG311    CG311    NG2S1     5   113.500000   585.760000   0.00000000         0.00
   CG311    CG311    NG301     5   112.271200   752.701600   0.00000000         0.00
   CG311    CG311    NG311     5   111.200000   610.864000   0.00000000         0.00
   CG311    CG311    NG321     5   111.200000   610.864000   0.00000000         0.00
   CG311    CG311   NG3C51     5   110.000000   365.681600   0.00000000         0.00
   CG311    CG311    OG301     5   109.700000   962.320000   0.00000000         0.00
   CG311    CG311    OG311     5   110.100000   633.457600   0.00000000         0.00
   CG311    CG311   OG3C61     5   111.500000   376.560000   0.00000000         0.00
   CG311    CG311   OG3R60     5   111.500000   376.560000   0.00000000         0.00
   CG311    CG311    SG311     5   114.500000   485.344000   0.00000000         0.00
   CG311    CG311    SG3O2     5   105.000000   376.560000   0.00000000         0.00
   CG311    CG311    SG3O3     5   109.747700   557.727200   0.00000000         0.00
   CG311    CG311     HGA1     5   110.100000   288.696000   0.21790000     18853.10
   CG312    CG311    CG321     5   111.980000   444.340800   0.25015000      6694.40
   CG312    CG311    CG324     5   110.590200   453.880320   0.00000000         0.00
   CG312    CG311    CG331     5   111.980000   444.340800   0.25015000      6694.40
   CG312    CG311     HGA1     5   110.100000   289.532800   0.21790000     18853.10
   CG314    CG311    CG314     5   106.204400   381.413440   0.00000000         0.00
   CG314    CG311    CG321     5   111.000000   446.432800   0.25610000      6694.40
   CG314    CG311    CG324     5   114.338400   440.742560   0.00000000         0.00
   CG314    CG311    CG331     5   108.500000   446.432800   0.25610000      6694.40
   CG314    CG311   NG2R51     5   101.232800   542.748480   0.00000000         0.00
   CG314    CG311    NG2S0     5   113.500000   585.760000   0.00000000         0.00
   CG314    CG311    NG2S1     5   113.500000   585.760000   0.00000000         0.00
   CG314    CG311    NG301     5   102.155300   390.952960   0.00000000         0.00
   CG314    CG311    NG311     5   111.655300   758.140800   0.00000000         0.00
   CG314    CG311    NG321     5    96.928700   436.976960   0.00000000         0.00
   CG314    CG311    OG311     5   112.100000   633.457600   0.00000000         0.00
   CG314    CG311   OG3C61     5   106.500000   418.400000   0.00000000         0.00
   CG314    CG311    SG311     5   112.500000   485.344000   0.00000000         0.00
   CG314    CG311     HGA1     5   110.100000   288.696000   0.21790000     18853.10
   CG321    CG311    CG321     5   113.500000   488.272800   0.25610000      9338.69
   CG321    CG311    CG322     5   111.980000   444.340800   0.25015000      6694.40
   CG321    CG311    CG324     5   110.500000   488.272800   0.25610000      9338.69
   CG321    CG311    CG331     5   114.000000   446.432800   0.25610000      6694.40
   CG321    CG311   CG3C41     5   111.000000   446.432800   0.00000000         0.00
   CG321    CG311   CG3C50     5   111.000000   446.432800   0.25610000      6694.40
   CG321    CG311   CG3C51     5   111.000000   446.432800   0.25610000      6694.40
   CG321    CG311   CG3C53     5   111.000000   446.432800   0.25610000      6694.40
   CG321    CG311   CG3RC1     5   103.700000   446.432800   0.25610000      6694.40
   CG321    CG311    NG2D1     5   112.000000   861.904000   0.00000000         0.00
   CG321    CG311    NG2O1     5   109.000000   475.302400   0.00000000         0.00
   CG321    CG311   NG2R51     5   110.964300   572.789600   0.00000000         0.00
   CG321    CG311   NG2R53     5   113.500000   585.760000   0.00000000         0.00
   CG321    CG311   NG2R61     5   113.500000   585.760000   0.00000000         0.00
   CG321    CG311    NG2S0     5   108.000000   585.760000   0.00000000         0.00
   CG321    CG311    NG2S1     5   113.500000   585.760000   0.00000000         0.00
   CG321    CG311    NG301     5   112.200000   365.681600   0.00000000         0.00
   CG321    CG311    NG311     5   112.200000   365.681600   0.00000000         0.00
   CG321    CG311    NG321     5   112.200000   365.681600   0.00000000         0.00
   CG321    CG311   NG3C51     5   112.200000   365.681600   0.00000000         0.00
   CG321    CG311    OG301     5   109.700000   962.320000   0.00000000         0.00
   CG321    CG311    OG302     5   109.700000   962.320000   0.00000000         0.00
   CG321    CG311    OG311     5   110.000000   633.457600   0.00000000         0.00
   CG321    CG311   OG3C61     5   111.500000   376.560000   0.00000000         0.00
   CG321    CG311   OG3R60     5   111.500000   376.560000   0.00000000         0.00
   CG321    CG311    SG311     5   114.500000   485.344000   0.00000000         0.00
   CG321    CG311    SG3O1     5   105.500000   359.824000   0.00000000         0.00
   CG321    CG311    SG3O2     5   105.000000   376.560000   0.00000000         0.00
   CG321    CG311    SG3O3     5   105.000000   376.560000   0.00000000         0.00
   CG321    CG311     HGA1     5   110.100000   288.696000   0.21790000     18853.10
   CG322    CG311    CG324     5   110.356900   389.195680   0.00000000         0.00
   CG322    CG311    CG331     5   111.980000   444.340800   0.25015000      6694.40
   CG322    CG311    OG311     5   110.100000   633.457600   0.00000000         0.00
   CG322    CG311     HGA1     5   110.100000   289.532800   0.21790000     18853.10
   CG324    CG311    CG324     5   116.943200   410.617760   0.00000000         0.00
   CG324    CG311    CG331     5   108.500000   446.432800   0.25610000      6694.40
   CG324    CG311   CG3C50     5   107.587800   412.542400   0.00000000         0.00
   CG324    CG311   CG3C51     5   103.281700   346.686240   0.00000000         0.00
   CG324    CG311   CG3C53     5   106.188700   383.087040   0.00000000         0.00
   CG324    CG311   CG3RC1     5   102.850400   463.001440   0.00000000         0.00
   CG324    CG311   NG2R51     5    99.706900   437.395360   0.00000000         0.00
   CG324    CG311   NG2R61     5   113.500000   585.760000   0.00000000         0.00
   CG324    CG311    NG2S0     5   113.500000   585.760000   0.00000000         0.00
   CG324    CG311    NG2S1     5   113.500000   585.760000   0.00000000         0.00
   CG324    CG311    NG301     5   107.028700   661.657760   0.00000000         0.00
   CG324    CG311    NG311     5   106.421500   694.962400   0.00000000         0.00
   CG324    CG311    NG321     5    94.879000   254.972960   0.00000000         0.00
   CG324    CG311    OG301     5   110.100000   633.457600   0.00000000         0.00
   CG324    CG311    OG311     5   112.100000   633.457600   0.00000000         0.00
   CG324    CG311   OG3C61     5   106.500000   418.400000   0.00000000         0.00
   CG324    CG311     HGA1     5   111.800000   221.752000   0.21790000     18853.10
   CG331    CG311    CG331     5   114.000000   446.432800   0.25610000      6694.40
   CG331    CG311   CG3C41     5   111.000000   446.432800   0.00000000         0.00
   CG331    CG311   CG3C51     5   108.500000   446.432800   0.25610000      6694.40
   CG331    CG311   CG3RC1     5   103.700000   446.432800   0.25610000      6694.40
   CG331    CG311    NG2D1     5   114.433400   479.737440   0.00000000         0.00
   CG331    CG311   NG2R61     5   113.500000   585.760000   0.00000000         0.00
   CG331    CG311    NG2S0     5   113.500000   585.760000   0.00000000         0.00
   CG331    CG311    NG2S1     5   113.500000   585.760000   0.00000000         0.00
   CG331    CG311    NG301     5   110.747700   430.700960   0.00000000         0.00
   CG331    CG311    NG311     5   113.200000   610.864000   0.00000000         0.00
   CG331    CG311    NG321     5   113.200000   610.864000   0.00000000         0.00
   CG331    CG311   NG3C51     5   113.200000   610.864000   0.00000000         0.00
   CG331    CG311    NG3N1     5   113.200000   610.864000   0.00000000         0.00
   CG331    CG311    OG301     5   111.500000   376.560000   0.00000000         0.00
   CG331    CG311    OG302     5   110.100000   633.457600   0.00000000         0.00
   CG331    CG311    OG303     5   109.700000   962.320000   0.00000000         0.00
   CG331    CG311    OG311     5   110.100000   633.457600   0.00000000         0.00
   CG331    CG311   OG3C61     5   111.500000   376.560000   0.00000000         0.00
   CG331    CG311   OG3R60     5   111.500000   376.560000   0.00000000         0.00
   CG331    CG311    SG311     5   114.500000   485.344000   0.00000000         0.00
   CG331    CG311    SG3O2     5   105.000000   376.560000   0.00000000         0.00
   CG331    CG311    SG3O3     5   104.658600   497.226560   0.00000000         0.00
   CG331    CG311    CLGA1     5   111.200000   736.384000   0.00000000         0.00
   CG331    CG311    BRGA2     5   111.000000   627.600000   0.00000000         0.00
   CG331    CG311     HGA1     5   110.100000   288.696000   0.21790000     18853.10
  CG3C31    CG311    NG311     5   112.200000   365.681600   0.00000000         0.00
  CG3C31    CG311     HGA1     5   109.000000   351.456000   0.00000000         0.00
  CG3C41    CG311     HGA1     5   109.000000   351.456000   0.00000000         0.00
  CG3C50    CG311    OG311     5   110.100000   633.457600   0.00000000         0.00
  CG3C50    CG311     HGA1     5   110.100000   289.532800   0.21790000     18853.10
  CG3C51    CG311    NG311     5   100.936500   362.669120   0.00000000         0.00
  CG3C51    CG311    OG311     5   110.841400   620.403520   0.00000000         0.00
  CG3C51    CG311   OG3C61     5   105.240800   541.409600   0.00000000         0.00
  CG3C51    CG311     HGA1     5   110.100000   289.532800   0.21790000     18853.10
  CG3C53    CG311     HGA1     5   110.100000   288.696000   0.21790000     18853.10
  CG3RC1    CG311   CG3RC1     5   100.240600     8.368000   0.00000000         0.00
  CG3RC1    CG311    NG311     5   108.515600   584.253760   0.00000000         0.00
  CG3RC1    CG311    NG321     5   106.795800   552.539040   0.00000000         0.00
  CG3RC1    CG311   NG3C51     5   104.051500   384.174880   0.00000000         0.00
  CG3RC1    CG311    OG311     5   110.100000   633.457600   0.00000000         0.00
  CG3RC1    CG311     HGA1     5   110.100000   288.696000   0.21790000     18853.10
   NG2D1    CG311    NG301     5    95.978500   536.556160   0.00000000         0.00
   NG2D1    CG311     HGA1     5   101.320600   327.105120   0.00000000         0.00
   NG2O1    CG311     HGA1     5   106.300000   502.080000   0.00000000         0.00
  NG2R51    CG311    OG311     5   106.119500   575.383680   0.00000000         0.00
  NG2R51    CG311   OG3C61     5   101.302900   623.918080   0.00000000         0.00
  NG2R51    CG311     HGA1     5   103.320400   454.131360   0.00000000         0.00
  NG2R53    CG311     HGA1     5   108.000000   401.664000   0.00000000         0.00
  NG2R61    CG311   OG3C61     5   103.985700   672.201440   0.00000000         0.00
  NG2R61    CG311     HGA1     5   108.000000   401.664000   0.00000000         0.00
   NG2S0    CG311    NG2S1     5   111.610100   696.636000   0.00000000         0.00
   NG2S0    CG311    NG311     5   103.897200   576.638880   0.00000000         0.00
   NG2S0    CG311    OG311     5   115.360400   594.630080   0.00000000         0.00
   NG2S0    CG311     HGA1     5   108.000000   401.664000   0.00000000         0.00
   NG2S1    CG311    NG2S1     5   111.026700   744.584640   0.00000000         0.00
   NG2S1    CG311    NG301     5   103.418900   722.493120   0.00000000         0.00
   NG2S1    CG311    NG311     5   107.350000   590.697120   0.00000000         0.00
   NG2S1    CG311   OG3R60     5   103.393900   725.924000   0.00000000         0.00
   NG2S1    CG311    SG3O2     5   108.785200   621.909760   0.00000000         0.00
   NG2S1    CG311     HGA1     5   108.000000   401.664000   0.00000000         0.00
   NG301    CG311    NG301     5   113.000000   753.120000   0.00000000         0.00
   NG301    CG311   OG3R60     5   111.697600   922.906720   0.00000000         0.00
   NG301    CG311     HGA1     5    96.752400   344.426880   0.00000000         0.00
   NG311    CG311    NG311     5   113.000000   753.120000   0.00000000         0.00
   NG311    CG311    OG311     5   120.340700   575.551040   0.00000000         0.00
   NG311    CG311     HGA1     5   109.500000   271.123200   0.21300000     41840.00
   NG321    CG311   OG3C61     5   117.188900   719.815360   0.00000000         0.00
   NG321    CG311     HGA1     5   109.500000   271.123200   0.21400000     41840.00
  NG3C51    CG311     HGA1     5   109.500000   271.123200   0.21300000     41840.00
   NG3N1    CG311    SG311     5   119.200000   486.097120   0.00000000         0.00
   NG3N1    CG311     HGA1     5   109.500000   271.123200   0.21300000     41840.00
   OG301    CG311   OG3C61     5   112.000000   753.120000   0.00000000         0.00
   OG301    CG311     HGA1     5   109.500000   502.080000   0.00000000         0.00
   OG302    CG311     HGA1     5   109.500000   502.080000   0.00000000         0.00
   OG303    CG311    OG311     5   112.790000   622.997600   0.00000000         0.00
   OG303    CG311     HGA1     5   109.500000   502.080000   0.00000000         0.00
   OG311    CG311    OG311     5   117.150000   840.984000   0.00000000         0.00
   OG311    CG311    OG312     5   111.000000   936.379200   0.23500000     83680.00
   OG311    CG311   OG3C61     5   112.000000   753.120000   0.00000000         0.00
   OG311    CG311    SG311     5   115.680000   569.358720   0.00000000         0.00
   OG311    CG311     HGA1     5   108.890000   384.091200   0.00000000         0.00
   OG312    CG311     HGA1     5   117.800000   551.451200   0.00000000         0.00
  OG3C61    CG311   OG3C61     5   110.500000   376.560000   0.00000000         0.00
  OG3C61    CG311     HGA1     5   109.500000   376.560000   0.00000000         0.00
  OG3R60    CG311    SG311     5   110.424600   607.600480   0.00000000         0.00
  OG3R60    CG311     HGA1     5   109.500000   376.560000   0.00000000         0.00
   SG311    CG311    SG3O3     5   109.786200   562.999040   0.00000000         0.00
   SG311    CG311     HGA1     5   111.300000   385.764800   0.00000000         0.00
   SG3O1    CG311     HGA1     5   109.000000   410.032000   0.00000000         0.00
   SG3O2    CG311     HGA1     5   107.000000   376.560000   0.00000000         0.00
   SG3O3    CG311     HGA1     5   105.224100   309.113920   0.00000000         0.00
   CLGA1    CG311    CLGA1     5   109.000000   794.960000   0.00000000         0.00
   CLGA1    CG311     HGA1     5   108.500000   368.192000   0.00000000         0.00
   BRGA2    CG311    BRGA2     5   110.000000   794.960000   0.00000000         0.00
   BRGA2    CG311     HGA1     5   107.000000   301.248000   0.00000000         0.00
   CG2O1    CG312    CG311     5   112.262700   320.494400   0.00000000         0.00
   CG2O1    CG312    CG321     5   115.613100   423.337120   0.00000000         0.00
   CG2O1    CG312     FGA2     5   105.496400   473.377760   0.00000000         0.00
   CG2O5    CG312    CG321     5   112.227000   263.340960   0.00000000         0.00
   CG2O5    CG312     FGA2     5   106.379500   471.369440   0.00000000         0.00
  CG2R51    CG312     FGA2     5   115.000000   418.400000   0.23570000     25104.00
  CG2R51    CG312     HGA7     5   120.726700   337.648800   0.00000000         0.00
  CG2R52    CG312    CG321     5   116.209800   914.706080   0.00000000         0.00
  CG2R52    CG312     FGA2     5   115.000000   418.400000   0.23570000     25104.00
  CG2R61    CG312    CG321     5   123.286200   317.565600   0.00000000         0.00
  CG2R61    CG312    CG331     5   122.031800   305.348320   0.00000000         0.00
  CG2R61    CG312      PG1     5   117.000000   753.120000   0.23000000     16736.00
  CG2R61    CG312      PG2     5   117.000000   753.120000   0.23000000     16736.00
  CG2R61    CG312     FGA2     5   115.000000   418.400000   0.23570000     25104.00
  CG2R61    CG312     HGA7     5   119.043400   301.080640   0.00000000         0.00
  CG2R62    CG312     FGA2     5   115.000000   418.400000   0.23570000     25104.00
  CG2R62    CG312     HGA7     5   117.270600   263.759360   0.00000000         0.00
   CG301    CG312    CG321     5   122.040000   383.003360   0.25228000     25104.00
   CG301    CG312     FGA2     5   112.000000   418.400000   0.23570000     25104.00
   CG311    CG312    CG311     5   122.040000   383.003360   0.25228000     25104.00
   CG311    CG312    CG321     5   122.040000   383.003360   0.25228000     25104.00
   CG311    CG312    CG324     5   137.796400   341.330720   0.00000000         0.00
   CG311    CG312     FGA2     5   112.000000   418.400000   0.23570000     25104.00
   CG312    CG312   OG3R60     5   102.753600   224.848160   0.00000000         0.00
   CG312    CG312     FGA2     5   120.931400   418.902080   0.00000000         0.00
   CG321    CG312    CG321     5   122.040000   383.003360   0.25228000     25104.00
   CG321    CG312    CG322     5   118.614900   390.701920   0.00000000         0.00
   CG321    CG312    CG324     5   124.926900   783.077440   0.00000000         0.00
   CG321    CG312     FGA2     5   112.000000   418.400000   0.23570000     25104.00
   CG321    CG312     HGA7     5   112.000000   267.776000   0.21680000      2510.40
   CG322    CG312     FGA2     5   107.532700   529.359680   0.00000000         0.00
   CG324    CG312     FGA2     5   104.370000   238.488000   0.29305000     18928.42
   CG331    CG312     FGA2     5   112.000000   418.400000   0.23570000     25104.00
   CG331    CG312     HGA7     5   112.000000   267.776000   0.21680000      2510.40
  NG2R61    CG312     FGA2     5   107.268700   672.117760   0.00000000         0.00
  NG2R61    CG312     HGA7     5   103.053600   290.369600   0.00000000         0.00
  OG3R60    CG312     FGA2     5   119.278600   602.244960   0.00000000         0.00
     PG1    CG312     FGA2     5   122.000000   418.400000   0.23570000     25104.00
     PG2    CG312     FGA2     5   122.000000   418.400000   0.23570000     25104.00
   SG311    CG312     FGA2     5   111.570000   418.400000   0.26018000     25104.00
   SG311    CG312     HGA7     5   110.600000   385.597440   0.00000000         0.00
    FGA2    CG312     FGA2     5   107.000000  1255.200000   0.21700000      8368.00
    FGA2    CG312     HGA7     5   108.890000   350.619200   0.19800000      4184.00
   CG2D1    CG314    CG2D1     5   114.000000   251.040000   0.00000000         0.00
   CG2D1    CG314    NG3P3     5   112.160000   384.091200   0.24644000     29288.00
   CG2D1    CG314     HGA1     5   111.500000   376.560000   0.00000000         0.00
  CG2D1O    CG314    CG321     5   112.200000   267.776000   0.00000000         0.00
  CG2D1O    CG314    NG3P1     5   112.160000   384.091200   0.24644000     29288.00
  CG2D1O    CG314     HGA1     5   111.500000   376.560000   0.00000000         0.00
  CG2D2O    CG314    CG321     5   112.200000   267.776000   0.00000000         0.00
  CG2D2O    CG314    NG3P1     5   112.160000   384.091200   0.24644000     29288.00
  CG2D2O    CG314     HGA1     5   111.500000   376.560000   0.00000000         0.00
  CG2DC1    CG314   CG2R61     5   106.796000   297.900800   0.00000000         0.00
  CG2DC1    CG314    NG2P1     5    86.956200   312.210080   0.00000000         0.00
  CG2DC1    CG314     HGA1     5   111.500000   376.560000   0.00000000         0.00
  CG2DC2    CG314   CG2R61     5   106.796000   297.900800   0.00000000         0.00
  CG2DC2    CG314    NG2P1     5    86.956200   312.210080   0.00000000         0.00
  CG2DC2    CG314     HGA1     5   111.500000   376.560000   0.00000000         0.00
   CG2O1    CG314    CG311     5   108.000000   435.136000   0.00000000         0.00
   CG2O1    CG314    CG321     5   108.000000   435.136000   0.00000000         0.00
   CG2O1    CG314    CG331     5   108.000000   435.136000   0.00000000         0.00
   CG2O1    CG314    NG3P0     5   110.000000   365.681600   0.00000000         0.00
   CG2O1    CG314    NG3P1     5   110.000000   365.681600   0.00000000         0.00
   CG2O1    CG314    NG3P3     5   110.000000   365.681600   0.00000000         0.00
   CG2O1    CG314     HGA1     5   109.500000   418.400000   0.00000000         0.00
   CG2O1    CG314     HGP5     5   116.420000   422.081920   0.00000000         0.00
   CG2O3    CG314   CG2R51     5   107.500000   433.462400   0.00000000         0.00
   CG2O3    CG314    CG301     5   108.000000   435.136000   0.00000000         0.00
   CG2O3    CG314    CG302     5   111.360000   387.103680   0.00000000         0.00
   CG2O3    CG314    CG311     5   108.000000   435.136000   0.00000000         0.00
   CG2O3    CG314    CG321     5   108.000000   435.136000   0.00000000         0.00
   CG2O3    CG314    CG331     5   108.000000   435.136000   0.00000000         0.00
   CG2O3    CG314   CG3C51     5   108.000000   435.136000   0.00000000         0.00
   CG2O3    CG314    NG3P1     5   110.000000   365.681600   0.00000000         0.00
   CG2O3    CG314    NG3P2     5   110.000000   365.681600   0.00000000         0.00
   CG2O3    CG314    NG3P3     5   110.000000   365.681600   0.00000000         0.00
   CG2O3    CG314     HGA1     5   109.500000   418.400000   0.00000000         0.00
   CG2O5    CG314    CG331     5   108.000000   435.136000   0.00000000         0.00
   CG2O5    CG314    NG3P1     5   110.000000   365.681600   0.00000000         0.00
   CG2O5    CG314     HGA1     5   109.500000   418.400000   0.00000000         0.00
  CG2R51    CG314    CG321     5   114.000000   488.272800   0.00000000         0.00
  CG2R51    CG314    CG331     5   114.000000   488.272800   0.00000000         0.00
  CG2R51    CG314    NG3P1     5   109.100000   384.342240   0.24377000     29873.76
  CG2R51    CG314    NG3P2     5   109.100000   384.342240   0.24377000     29873.76
  CG2R51    CG314    NG3P3     5   109.100000   384.342240   0.24377000     29873.76
  CG2R51    CG314     HGA1     5   109.500000   460.240000   0.00000000         0.00
  CG2R52    CG314    CG321     5   111.000000   493.712000   0.00000000         0.00
  CG2R52    CG314    NG3P3     5   109.100000   384.342240   0.24377000     29873.76
  CG2R52    CG314     HGA1     5   109.500000   460.240000   0.00000000         0.00
  CG2R53    CG314    CG331     5   111.000000   493.712000   0.00000000         0.00
  CG2R53    CG314    NG3P3     5   109.100000   384.342240   0.24377000     29873.76
  CG2R53    CG314     HGA1     5   109.500000   460.240000   0.00000000         0.00
  CG2R61    CG314    CG311     5   107.500000   433.462400   0.00000000         0.00
  CG2R61    CG314    CG321     5   107.500000   433.462400   0.00000000         0.00
  CG2R61    CG314    CG331     5   107.500000   433.462400   0.00000000         0.00
  CG2R61    CG314    NG2P1     5   110.564900   502.749440   0.00000000         0.00
  CG2R61    CG314   NG2R61     5   115.200000   443.504000   0.00000000         0.00
  CG2R61    CG314    NG3P2     5   108.500000   451.872000   0.24300000     30961.60
  CG2R61    CG314    NG3P3     5   107.000000   376.560000   0.00000000         0.00
  CG2R61    CG314     HGA1     5   111.000000   359.824000   0.00000000         0.00
  CG2R64    CG314    CG321     5   107.500000   433.462400   0.00000000         0.00
  CG2R64    CG314    NG3P2     5   107.000000   451.872000   0.22100000     30961.60
  CG2R64    CG314     HGA1     5   111.000000   359.824000   0.00000000         0.00
   CG301    CG314    CG301     5   108.000000   435.136000   0.00000000         0.00
   CG301    CG314    CG321     5   113.500000   488.272800   0.25610000      9338.69
   CG301    CG314    CG331     5   113.500000   488.272800   0.25610000      9338.69
   CG301    CG314    NG3P1     5   110.000000   334.720000   0.00000000         0.00
   CG301    CG314    NG3P2     5   110.000000   334.720000   0.00000000         0.00
   CG301    CG314    NG3P3     5   110.000000   566.513600   0.00000000         0.00
   CG301    CG314     HGA1     5   110.100000   289.532800   0.21790000     18853.10
   CG302    CG314    CG321     5   108.650000   446.432800   0.24926000      6660.93
   CG302    CG314    NG2P1     5   101.787400   467.436480   0.00000000         0.00
   CG302    CG314    NG3P3     5   108.760000   566.429920   0.00000000         0.00
   CG302    CG314     HGA1     5   110.100000   289.532800   0.21790000     18853.10
   CG311    CG314    CG311     5   111.000000   446.432800   0.25610000      6694.40
   CG311    CG314    CG321     5   113.500000   488.272800   0.25610000      9338.69
   CG311    CG314    CG331     5   113.500000   488.272800   0.25610000      9338.69
   CG311    CG314    NG3P1     5   110.000000   334.720000   0.00000000         0.00
   CG311    CG314    NG3P2     5   110.000000   334.720000   0.00000000         0.00
   CG311    CG314    NG3P3     5   110.000000   566.513600   0.00000000         0.00
   CG311    CG314    OG311     5   110.100000   633.457600   0.00000000         0.00
   CG311    CG314   OG3C61     5   111.500000   376.560000   0.00000000         0.00
   CG311    CG314     HGA1     5   110.100000   288.696000   0.21790000     18853.10
   CG314    CG314    CG321     5   111.000000   446.432800   0.25610000      6694.40
   CG314    CG314    CG331     5   108.500000   446.432800   0.25610000      6694.40
   CG314    CG314    NG3P2     5    97.058100   502.331040   0.00000000         0.00
   CG314    CG314    NG3P3     5   102.062100   499.736960   0.00000000         0.00
   CG314    CG314     HGA1     5   110.100000   288.696000   0.21790000     18853.10
   CG321    CG314    CG321     5   113.500000   488.272800   0.25610000      9338.69
   CG321    CG314    CG324     5   110.500000   488.272800   0.25610000      9338.69
   CG321    CG314    CG331     5   113.500000   488.272800   0.25610000      9338.69
   CG321    CG314   CG3RC1     5   103.700000   446.432800   0.25610000      6694.40
   CG321    CG314    NG2P1     5   110.000000   566.513600   0.00000000         0.00
   CG321    CG314   NG2R52     5   110.000000   566.513600   0.00000000         0.00
   CG321    CG314   NG2R61     5   113.500000   585.760000   0.00000000         0.00
   CG321    CG314    NG3P0     5   110.000000   334.720000   0.00000000         0.00
   CG321    CG314    NG3P1     5   110.000000   334.720000   0.00000000         0.00
   CG321    CG314    NG3P2     5   110.000000   334.720000   0.00000000         0.00
   CG321    CG314    NG3P3     5   110.000000   566.513600   0.00000000         0.00
   CG321    CG314     HGA1     5   110.100000   288.696000   0.21790000     18853.10
   CG321    CG314     HGP5     5   110.100000   279.742240   0.21790000     18853.10
   CG324    CG314    NG3P2     5   100.396700   334.385280   0.00000000         0.00
   CG324    CG314    NG3P3     5   103.390700   446.349120   0.00000000         0.00
   CG324    CG314     HGA1     5   111.800000   221.752000   0.21790000     18853.10
   CG331    CG314    CG331     5   114.000000   446.432800   0.25610000      6694.40
   CG331    CG314    NG2P1     5   110.000000   566.513600   0.00000000         0.00
   CG331    CG314   NG2R52     5   110.000000   566.513600   0.00000000         0.00
   CG331    CG314   NG2R61     5   113.500000   585.760000   0.00000000         0.00
   CG331    CG314    NG311     5   113.200000   610.864000   0.00000000         0.00
   CG331    CG314    NG3P0     5   110.000000   334.720000   0.00000000         0.00
   CG331    CG314    NG3P1     5   110.000000   566.513600   0.00000000         0.00
   CG331    CG314    NG3P2     5   110.000000   566.513600   0.00000000         0.00
   CG331    CG314    NG3P3     5   110.000000   566.513600   0.00000000         0.00
   CG331    CG314     HGA1     5   110.100000   288.696000   0.21790000     18853.10
   CG331    CG314     HGP5     5   110.100000   279.742240   0.21790000     18853.10
  CG3C51    CG314    NG3P3     5   110.000000   566.513600   0.00000000         0.00
  CG3C51    CG314     HGA1     5   110.100000   289.532800   0.21790000     18853.10
  CG3RC1    CG314    NG3P3     5   110.000000   566.513600   0.00000000         0.00
  CG3RC1    CG314     HGA1     5   110.100000   288.696000   0.21790000     18853.10
   NG2P1    CG314    NG2P1     5    93.273200   260.914240   0.00000000         0.00
   NG2P1    CG314    NG311     5   118.009800   450.114720   0.00000000         0.00
   NG2P1    CG314     HGA1     5   110.100000   351.456000   0.00000000         0.00
  NG2R52    CG314     HGA1     5   110.100000   351.456000   0.00000000         0.00
  NG2R61    CG314     HGA1     5   108.000000   401.664000   0.00000000         0.00
   NG311    CG314    NG3P2     5   112.540000   639.900960   0.00000000         0.00
   NG311    CG314    NG3P3     5   112.540000   639.900960   0.00000000         0.00
   NG311    CG314    SG311     5   119.200000   486.097120   0.00000000         0.00
   NG311    CG314     HGA1     5   109.500000   271.123200   0.21300000     41840.00
   NG3P0    CG314     HGP5     5   109.500000   334.720000   0.21300000     22593.60
   NG3P1    CG314    OG311     5   105.816700   826.591040   0.00000000         0.00
   NG3P1    CG314     HGA1     5   102.300000   376.560000   0.21010000     29288.00
   NG3P2    CG314     HGA1     5   102.300000   376.560000   0.21010000     29288.00
   NG3P3    CG314   OG3C61     5   115.681000   576.638880   0.00000000         0.00
   NG3P3    CG314    SG311     5   112.970000   505.678240   0.00000000         0.00
   NG3P3    CG314     HGA1     5   107.500000   430.952000   0.00000000         0.00
   OG311    CG314     HGA1     5   108.890000   384.091200   0.00000000         0.00
  OG3C61    CG314     HGA1     5   109.500000   376.560000   0.00000000         0.00
   SG311    CG314     HGA1     5   111.300000   385.764800   0.00000000         0.00
   CG1N1    CG321   CG2R53     5   112.000000   476.976000   0.00000000         0.00
   CG1N1    CG321   CG2R61     5   112.000000   476.976000   0.00000000         0.00
   CG1N1    CG321   CG2R62     5   112.000000   476.976000   0.00000000         0.00
   CG1N1    CG321     HGA2     5   109.000000   418.400000   0.00000000         0.00
   CG1T1    CG321    CG321     5   113.500000   585.760000   0.00000000         0.00
   CG1T1    CG321    CG331     5   120.000000   585.760000   0.00000000         0.00
   CG1T1    CG321     HGA2     5   111.500000   393.296000   0.00000000         0.00
   CG2D1    CG321    CG2D1     5   114.000000   251.040000   0.00000000         0.00
   CG2D1    CG321   CG2DC1     5   108.000000  1046.000000   0.00000000         0.00
   CG2D1    CG321   CG2DC2     5   108.000000  1046.000000   0.00000000         0.00
   CG2D1    CG321    CG2O1     5   103.624300   313.130560   0.00000000         0.00
   CG2D1    CG321    CG2O5     5   104.233500   180.665120   0.00000000         0.00
   CG2D1    CG321    CG301     5   112.200000   267.776000   0.00000000         0.00
   CG2D1    CG321    CG311     5   112.200000   267.776000   0.00000000         0.00
   CG2D1    CG321    CG314     5   107.524700   454.298720   0.00000000         0.00
   CG2D1    CG321    CG321     5   112.200000   267.776000   0.00000000         0.00
   CG2D1    CG321    CG324     5   107.124700   434.550240   0.00000000         0.00
   CG2D1    CG321    CG331     5   112.200000   267.776000   0.00000000         0.00
   CG2D1    CG321   CG3C31     5   112.200000   267.776000   0.00000000         0.00
   CG2D1    CG321   CG3C51     5   110.335800   470.197920   0.00000000         0.00
   CG2D1    CG321   CG3RC1     5   105.686400   247.860160   0.00000000         0.00
   CG2D1    CG321    NG2S0     5   114.263700   684.837120   0.00000000         0.00
   CG2D1    CG321    NG301     5   110.000000   652.704000   0.00000000         0.00
   CG2D1    CG321    NG311     5   110.000000   652.704000   0.00000000         0.00
   CG2D1    CG321    OG302     5    99.000000   167.360000   0.00000000         0.00
   CG2D1    CG321    OG311     5   110.100000   633.457600   0.00000000         0.00
   CG2D1    CG321   OG3C61     5    99.000000   167.360000   0.00000000         0.00
   CG2D1    CG321    SG311     5   109.800000   393.296000   0.00000000         0.00
   CG2D1    CG321    SG3O2     5   108.874900   295.390400   0.00000000         0.00
   CG2D1    CG321     HGA2     5   111.500000   376.560000   0.00000000         0.00
  CG2D1O    CG321    CG321     5   112.200000   267.776000   0.00000000         0.00
  CG2D1O    CG321     HGA2     5   111.500000   376.560000   0.00000000         0.00
  CG2D2O    CG321    CG321     5   112.200000   267.776000   0.00000000         0.00
  CG2D2O    CG321     HGA2     5   111.500000   376.560000   0.00000000         0.00
  CG2DC1    CG321   CG2DC1     5   108.000000  1046.000000   0.00000000         0.00
  CG2DC1    CG321    CG2O1     5   108.304700   230.287360   0.00000000         0.00
  CG2DC1    CG321    CG311     5   112.200000   267.776000   0.00000000         0.00
  CG2DC1    CG321    CG314     5   106.775400   503.084160   0.00000000         0.00
  CG2DC1    CG321    CG321     5   112.200000   267.776000   0.00000000         0.00
  CG2DC1    CG321    CG324     5   108.872800   542.832160   0.00000000         0.00
  CG2DC1    CG321    CG331     5   112.200000   267.776000   0.00000000         0.00
  CG2DC1    CG321    NG301     5   110.000000   652.704000   0.00000000         0.00
  CG2DC1    CG321    NG311     5   110.000000   652.704000   0.00000000         0.00
  CG2DC1    CG321    OG311     5   110.100000   633.457600   0.00000000         0.00
  CG2DC1    CG321   OG3C61     5    99.000000   167.360000   0.00000000         0.00
  CG2DC1    CG321   OG3R60     5    99.000000   167.360000   0.00000000         0.00
  CG2DC1    CG321    SG311     5   109.800000   393.296000   0.00000000         0.00
  CG2DC1    CG321     HGA2     5   111.500000   376.560000   0.00000000         0.00
  CG2DC2    CG321   CG2DC2     5   108.000000  1046.000000   0.00000000         0.00
  CG2DC2    CG321    CG2O1     5   108.304700   230.287360   0.00000000         0.00
  CG2DC2    CG321    CG311     5   112.200000   267.776000   0.00000000         0.00
  CG2DC2    CG321    CG314     5   106.775400   503.084160   0.00000000         0.00
  CG2DC2    CG321    CG321     5   112.200000   267.776000   0.00000000         0.00
  CG2DC2    CG321    CG324     5   108.872800   542.832160   0.00000000         0.00
  CG2DC2    CG321    CG331     5   112.200000   267.776000   0.00000000         0.00
  CG2DC2    CG321    NG301     5   110.000000   652.704000   0.00000000         0.00
  CG2DC2    CG321    NG311     5   110.000000   652.704000   0.00000000         0.00
  CG2DC2    CG321    OG311     5   110.100000   633.457600   0.00000000         0.00
  CG2DC2    CG321   OG3C61     5    99.000000   167.360000   0.00000000         0.00
  CG2DC2    CG321   OG3R60     5    99.000000   167.360000   0.00000000         0.00
  CG2DC2    CG321    SG311     5   109.800000   393.296000   0.00000000         0.00
  CG2DC2    CG321     HGA2     5   111.500000   376.560000   0.00000000         0.00
   CG2N2    CG321   CG2R61     5   107.500000   433.462400   0.00000000         0.00
   CG2N2    CG321     HGA2     5   109.500000   276.144000   0.21300000     25104.00
   CG2O1    CG321    CG2O1     5   123.945000   517.393440   0.00000000         0.00
   CG2O1    CG321    CG2O5     5   113.760600   974.788320   0.00000000         0.00
   CG2O1    CG321   CG2R51     5   107.500000   433.462400   0.00000000         0.00
   CG2O1    CG321   CG2R61     5   107.500000   433.462400   0.00000000         0.00
   CG2O1    CG321   CG2R62     5   107.500000   433.462400   0.00000000         0.00
   CG2O1    CG321    CG301     5   108.000000   435.136000   0.00000000         0.00
   CG2O1    CG321    CG311     5   108.000000   435.136000   0.00000000         0.00
   CG2O1    CG321    CG314     5   108.000000   435.136000   0.00000000         0.00
   CG2O1    CG321    CG321     5   108.000000   435.136000   0.00000000         0.00
   CG2O1    CG321    CG324     5   108.000000   435.136000   0.00000000         0.00
   CG2O1    CG321    CG331     5   108.000000   435.136000   0.00000000         0.00
   CG2O1    CG321   NG2R51     5   108.180000   343.339040   0.00000000         0.00
   CG2O1    CG321   NG2R53     5   107.000000   418.400000   0.00000000         0.00
   CG2O1    CG321    NG2S0     5   107.000000   418.400000   0.00000000         0.00
   CG2O1    CG321    NG2S1     5   107.000000   418.400000   0.00000000         0.00
   CG2O1    CG321    NG301     5   110.000000   365.681600   0.00000000         0.00
   CG2O1    CG321    NG311     5   110.000000   365.681600   0.00000000         0.00
   CG2O1    CG321    OG301     5   109.000000   585.760000   0.00000000         0.00
   CG2O1    CG321   OG3C61     5   109.000000   585.760000   0.00000000         0.00
   CG2O1    CG321    SG311     5   110.050000   414.216000   0.00000000         0.00
   CG2O1    CG321    SG3O2     5   114.916400   236.144960   0.00000000         0.00
   CG2O1    CG321     HGA2     5   109.500000   276.144000   0.21630000     25104.00
   CG2O2    CG321    CG2O3     5   112.790000   327.439840   0.00000000         0.00
   CG2O2    CG321   CG2R61     5   107.500000   433.462400   0.00000000         0.00
   CG2O2    CG321   CG2R62     5   107.500000   433.462400   0.00000000         0.00
   CG2O2    CG321    CG301     5   108.000000   435.136000   0.00000000         0.00
   CG2O2    CG321    CG311     5   108.000000   435.136000   0.00000000         0.00
   CG2O2    CG321    CG314     5   108.000000   435.136000   0.00000000         0.00
   CG2O2    CG321    CG321     5   108.000000   435.136000   0.00000000         0.00
   CG2O2    CG321    CG331     5   108.000000   435.136000   0.00000000         0.00
   CG2O2    CG321    NG2S1     5   107.000000   418.400000   0.00000000         0.00
   CG2O2    CG321    NG311     5   110.000000   365.681600   0.00000000         0.00
   CG2O2    CG321    NG321     5   110.000000   365.681600   0.00000000         0.00
   CG2O2    CG321    OG301     5   109.000000   585.760000   0.00000000         0.00
   CG2O2    CG321     HGA2     5   109.500000   276.144000   0.21630000     25104.00
   CG2O3    CG321   CG2R61     5   107.500000   433.462400   0.00000000         0.00
   CG2O3    CG321   CG2R62     5   107.500000   433.462400   0.00000000         0.00
   CG2O3    CG321    CG311     5   108.000000   435.136000   0.00000000         0.00
   CG2O3    CG321    CG314     5   108.000000   435.136000   0.00000000         0.00
   CG2O3    CG321    CG321     5   108.000000   435.136000   0.00000000         0.00
   CG2O3    CG321    CG331     5   108.000000   435.136000   0.00000000         0.00
   CG2O3    CG321    NG2S1     5   107.000000   418.400000   0.00000000         0.00
   CG2O3    CG321    OG301     5   109.000000   527.184000   0.00000000         0.00
   CG2O3    CG321    OG302     5   109.000000   376.560000   0.00000000         0.00
   CG2O3    CG321    SG311     5    99.560000   235.810240   0.23505000      8627.41
   CG2O3    CG321     HGA1     5   109.500000   418.400000   0.00000000         0.00
   CG2O3    CG321     HGA2     5   109.500000   276.144000   0.21630000     25104.00
   CG2O4    CG321    CG331     5   113.800000   502.080000   0.00000000         0.00
   CG2O4    CG321   NG2R51     5   111.050000   418.400000   0.00000000         0.00
   CG2O4    CG321    CLGA1     5   111.820000   543.920000   0.00000000         0.00
   CG2O4    CG321     HGA2     5   109.500000   276.144000   0.21630000     25104.00
   CG2O5    CG321    CG2O5     5   101.594700     8.368000   0.00000000         0.00
   CG2O5    CG321   CG2R51     5    80.892700   138.825120   0.00000000         0.00
   CG2O5    CG321    CG301     5   113.800000   502.080000   0.00000000         0.00
   CG2O5    CG321    CG311     5   113.800000   502.080000   0.00000000         0.00
   CG2O5    CG321    CG314     5   108.000000   435.136000   0.00000000         0.00
   CG2O5    CG321    CG321     5   113.800000   502.080000   0.00000000         0.00
   CG2O5    CG321    CG324     5   108.000000   435.136000   0.00000000         0.00
   CG2O5    CG321    CG331     5   111.500000   502.080000   0.00000000         0.00
   CG2O5    CG321   CG3C50     5   113.662500   320.578080   0.00000000         0.00
   CG2O5    CG321   CG3RC1     5    94.122100   148.448320   0.00000000         0.00
   CG2O5    CG321    NG301     5   110.000000   365.681600   0.00000000         0.00
   CG2O5    CG321    SG311     5   107.230000   428.023200   0.00000000         0.00
   CG2O5    CG321     HGA2     5   109.500000   418.400000   0.00000000         0.00
  CG2R51    CG321   CG2R51     5   114.000000   488.272800   0.00000000         0.00
  CG2R51    CG321   CG2R61     5   107.500000   433.462400   0.00000000         0.00
  CG2R51    CG321    CG301     5   114.000000   488.272800   0.00000000         0.00
  CG2R51    CG321    CG311     5   114.000000   488.272800   0.00000000         0.00
  CG2R51    CG321    CG314     5   114.000000   488.272800   0.00000000         0.00
  CG2R51    CG321    CG321     5   114.000000   488.272800   0.00000000         0.00
  CG2R51    CG321    CG324     5   114.000000   488.272800   0.00000000         0.00
  CG2R51    CG321    CG331     5   114.000000   488.272800   0.00000000         0.00
  CG2R51    CG321    NG2S0     5   115.200000   443.504000   0.00000000         0.00
  CG2R51    CG321    NG2S1     5   115.200000   443.504000   0.00000000         0.00
  CG2R51    CG321    NG301     5   107.000000   476.976000   0.00000000         0.00
  CG2R51    CG321    NG311     5   111.500000   585.760000   0.00000000         0.00
  CG2R51    CG321    NG321     5   110.000000   585.760000   0.00000000         0.00
  CG2R51    CG321    OG311     5   107.750000   624.671200   0.00000000         0.00
  CG2R51    CG321    SG301     5   108.560000   399.906720   0.27143000       635.97
  CG2R51    CG321    SG311     5   108.560000   399.906720   0.27143000       635.97
  CG2R51    CG321    SG3O2     5   104.740000   582.161760   0.27012000      1389.09
  CG2R51    CG321     HGA2     5   109.500000   460.240000   0.00000000         0.00
  CG2R52    CG321    CG301     5   111.000000   485.344000   0.00000000         0.00
  CG2R52    CG321    CG314     5   114.000000   488.272800   0.00000000         0.00
  CG2R52    CG321    CG321     5   111.000000   485.344000   0.00000000         0.00
  CG2R52    CG321    CG324     5   114.000000   488.272800   0.00000000         0.00
  CG2R52    CG321    NG301     5   107.000000   476.976000   0.00000000         0.00
  CG2R52    CG321    OG311     5   107.750000   624.671200   0.00000000         0.00
  CG2R52    CG321    SG311     5   108.560000   399.906720   0.27143000       635.97
  CG2R52    CG321     HGA2     5   109.500000   418.400000   0.00000000         0.00
  CG2R53    CG321    CG311     5   111.000000   493.712000   0.00000000         0.00
  CG2R53    CG321    CG321     5   111.000000   493.712000   0.00000000         0.00
  CG2R53    CG321    CG331     5   111.000000   493.712000   0.00000000         0.00
  CG2R53    CG321    NG2S1     5   115.200000   443.504000   0.00000000         0.00
  CG2R53    CG321    NG301     5   107.000000   476.976000   0.00000000         0.00
  CG2R53    CG321    NG311     5   111.500000   585.760000   0.00000000         0.00
  CG2R53    CG321    NG321     5   110.000000   585.760000   0.00000000         0.00
  CG2R53    CG321    OG311     5   107.750000   624.671200   0.00000000         0.00
  CG2R53    CG321   OG3C61     5   101.573800   473.963520   0.00000000         0.00
  CG2R53    CG321     HGA2     5   109.500000   460.240000   0.00000000         0.00
  CG2R61    CG321   CG2R61     5   107.500000   433.462400   0.00000000         0.00
  CG2R61    CG321    CG301     5   107.500000   433.462400   0.00000000         0.00
  CG2R61    CG321    CG311     5   107.500000   433.462400   0.00000000         0.00
  CG2R61    CG321    CG314     5   107.500000   433.462400   0.00000000         0.00
  CG2R61    CG321    CG321     5   107.500000   433.462400   0.00000000         0.00
  CG2R61    CG321    CG322     5   104.298300   320.996480   0.00000000         0.00
  CG2R61    CG321    CG331     5   107.500000   433.462400   0.00000000         0.00
  CG2R61    CG321    NG2D1     5   101.759100   541.409600   0.00000000         0.00
  CG2R61    CG321    NG2S0     5   115.200000   443.504000   0.00000000         0.00
  CG2R61    CG321    NG2S1     5   115.200000   443.504000   0.00000000         0.00
  CG2R61    CG321    NG301     5   109.000000   610.864000   0.00000000         0.00
  CG2R61    CG321    NG311     5   109.000000   610.864000   0.00000000         0.00
  CG2R61    CG321    NG321     5   109.000000   610.864000   0.00000000         0.00
  CG2R61    CG321    OG301     5   110.100000   633.457600   0.00000000         0.00
  CG2R61    CG321    OG302     5   110.100000   633.457600   0.00000000         0.00
  CG2R61    CG321    OG303     5   110.100000   633.457600   0.00000000         0.00
  CG2R61    CG321    OG311     5   110.100000   633.457600   0.00000000         0.00
  CG2R61    CG321   OG3C61     5   110.100000   633.457600   0.00000000         0.00
  CG2R61    CG321      PG1     5   111.000000   753.120000   0.23000000     16736.00
  CG2R61    CG321      PG2     5   111.000000   753.120000   0.23000000     16736.00
  CG2R61    CG321    SG311     5   108.240000   454.131360   0.00000000         0.00
  CG2R61    CG321    SG3O2     5   104.740000   582.161760   0.27012000      1389.09
  CG2R61    CG321     HGA2     5   107.500000   412.542400   0.00000000         0.00
  CG2R62    CG321    CG311     5   107.500000   433.462400   0.00000000         0.00
  CG2R62    CG321    CG321     5   107.500000   433.462400   0.00000000         0.00
  CG2R62    CG321    CG324     5   107.500000   433.462400   0.00000000         0.00
  CG2R62    CG321    NG2S0     5   115.200000   443.504000   0.00000000         0.00
  CG2R62    CG321    NG301     5   107.000000   652.704000   0.00000000         0.00
  CG2R62    CG321    NG311     5   107.000000   652.704000   0.00000000         0.00
  CG2R62    CG321    NG321     5   107.000000   652.704000   0.00000000         0.00
  CG2R62    CG321    OG311     5   109.700000   633.457600   0.00000000         0.00
  CG2R62    CG321   OG3C61     5   110.100000   633.457600   0.00000000         0.00
  CG2R62    CG321     HGA2     5   107.500000   412.542400   0.00000000         0.00
  CG2R64    CG321    NG311     5   107.000000   652.704000   0.00000000         0.00
  CG2R64    CG321    NG321     5   107.000000   652.704000   0.00000000         0.00
  CG2R64    CG321     HGA2     5   107.500000   412.542400   0.00000000         0.00
   CG301    CG321    CG301     5   113.500000   488.272800   0.25610000      9338.69
   CG301    CG321    CG311     5   113.500000   488.272800   0.25610000      9338.69
   CG301    CG321    CG321     5   113.500000   488.272800   0.25610000      9338.69
   CG301    CG321    CG324     5   110.500000   488.272800   0.25610000      9338.69
   CG301    CG321    CG331     5   113.500000   546.848800   0.00000000         0.00
   CG301    CG321   CG3RC1     5   111.000000   446.432800   0.25610000      6694.40
   CG301    CG321    NG2S0     5   111.500000   711.280000   0.00000000         0.00
   CG301    CG321    NG2S1     5   113.500000   585.760000   0.00000000         0.00
   CG301    CG321    NG301     5   115.770000   507.351840   0.00000000         0.00
   CG301    CG321    NG311     5   115.770000   507.351840   0.00000000         0.00
   CG301    CG321    OG303     5   110.100000   633.457600   0.00000000         0.00
   CG301    CG321    OG311     5   110.100000   633.457600   0.00000000         0.00
   CG301    CG321    SG311     5   112.500000   485.344000   0.00000000         0.00
   CG301    CG321    SG3O2     5   105.000000   376.560000   0.00000000         0.00
   CG301    CG321    SG3O3     5   105.000000   376.560000   0.00000000         0.00
   CG301    CG321     HGA2     5   110.100000   221.752000   0.21790000     18853.10
   CG302    CG321    OG311     5   110.100000   633.457600   0.00000000         0.00
   CG302    CG321     HGA2     5   110.100000   289.532800   0.21790000     18853.10
   CG311    CG321    CG311     5   113.500000   488.272800   0.25610000      9338.69
   CG311    CG321    CG314     5   113.500000   488.272800   0.25610000      9338.69
   CG311    CG321    CG321     5   113.500000   488.272800   0.25610000      9338.69
   CG311    CG321    CG322     5   113.810000   476.055520   0.25000000      6694.40
   CG311    CG321    CG324     5   110.500000   488.272800   0.25610000      9338.69
   CG311    CG321    CG331     5   113.500000   488.272800   0.25610000      9338.69
   CG311    CG321   CG3C41     5   111.000000   446.432800   0.00000000         0.00
   CG311    CG321   CG3C50     5   112.000000   443.504000   0.25610000      6694.40
   CG311    CG321   CG3C51     5   112.000000   443.504000   0.25610000      6694.40
   CG311    CG321   CG3RC1     5   111.000000   446.432800   0.25610000      6694.40
   CG311    CG321   NG2R51     5   120.000000   585.760000   0.00000000         0.00
   CG311    CG321   NG2R61     5   112.230000   563.584800   0.00000000         0.00
   CG311    CG321    NG2S0     5   111.500000   711.280000   0.00000000         0.00
   CG311    CG321    NG2S1     5   113.500000   585.760000   0.00000000         0.00
   CG311    CG321    NG301     5   115.770000   507.351840   0.00000000         0.00
   CG311    CG321    NG311     5   115.770000   507.351840   0.00000000         0.00
   CG311    CG321    NG321     5   120.000000   502.080000   0.00000000         0.00
   CG311    CG321   NG3C51     5   110.000000   365.681600   0.00000000         0.00
   CG311    CG321    NG3N1     5   115.770000   507.351840   0.00000000         0.00
   CG311    CG321    OG301     5   110.100000   633.457600   0.00000000         0.00
   CG311    CG321    OG302     5   110.100000   633.457600   0.00000000         0.00
   CG311    CG321    OG303     5   110.100000   633.457600   0.00000000         0.00
   CG311    CG321    OG311     5   110.100000   633.457600   0.00000000         0.00
   CG311    CG321   OG3C61     5   111.500000   376.560000   0.00000000         0.00
   CG311    CG321   OG3R60     5   111.500000   376.560000   0.00000000         0.00
   CG311    CG321    SG311     5   112.500000   485.344000   0.00000000         0.00
   CG311    CG321    SG3O2     5   105.000000   376.560000   0.00000000         0.00
   CG311    CG321    SG3O3     5   105.000000   376.560000   0.00000000         0.00
   CG311    CG321    CLGA1     5   112.200000   594.128000   0.00000000         0.00
   CG311    CG321     HGA2     5   110.100000   279.742240   0.21790000     18853.10
   CG312    CG321    CG314     5   109.004900   534.380480   0.00000000         0.00
   CG312    CG321    CG321     5   111.630000   443.671360   0.25105000      6694.40
   CG312    CG321    CG324     5   111.485600   382.668640   0.00000000         0.00
   CG312    CG321    CG331     5   111.630000   443.671360   0.25105000      6694.40
   CG312    CG321    NG301     5   112.570600   447.939040   0.00000000         0.00
   CG312    CG321    NG311     5   116.814500   324.762080   0.00000000         0.00
   CG312    CG321     HGA2     5   110.100000   289.532800   0.21790000     18853.10
   CG314    CG321    CG314     5   111.661400   416.224320   0.00000000         0.00
   CG314    CG321    CG321     5   113.500000   488.272800   0.25610000      9338.69
   CG314    CG321    CG322     5   117.398900   545.760960   0.00000000         0.00
   CG314    CG321    CG324     5   109.203700   496.389760   0.00000000         0.00
   CG314    CG321    CG331     5   110.500000   488.272800   0.25610000      9338.69
   CG314    CG321    NG2S0     5   113.500000   585.760000   0.00000000         0.00
   CG314    CG321    NG2S1     5   113.500000   585.760000   0.00000000         0.00
   CG314    CG321    NG301     5   103.925900   667.264320   0.00000000         0.00
   CG314    CG321    NG311     5   110.848600   421.245120   0.00000000         0.00
   CG314    CG321    OG311     5   110.100000   633.457600   0.00000000         0.00
   CG314    CG321   OG3C61     5   106.500000   418.400000   0.00000000         0.00
   CG314    CG321    SG311     5   112.500000   485.344000   0.00000000         0.00
   CG314    CG321    SG3O3     5   104.500000   292.880000   0.00000000         0.00
   CG314    CG321    CLGA1     5   109.240000   515.887200   0.00000000         0.00
   CG314    CG321     HGA2     5   110.100000   279.742240   0.21790000     18853.10
   CG321    CG321    CG321     5   113.600000   488.272800   0.25610000      9338.69
   CG321    CG321    CG322     5   113.810000   476.055520   0.25000000      6694.40
   CG321    CG321    CG324     5   110.500000   488.272800   0.25610000      9338.69
   CG321    CG321    CG331     5   115.000000   485.344000   0.25610000      6694.40
   CG321    CG321   CG3C31     5   111.000000   446.432800   0.00000000         0.00
   CG321    CG321   CG3C41     5   111.000000   446.432800   0.00000000         0.00
   CG321    CG321   CG3C50     5   112.000000   443.504000   0.25610000      6694.40
   CG321    CG321   CG3C51     5   112.000000   443.504000   0.25610000      6694.40
   CG321    CG321   CG3C53     5   113.500000   488.272800   0.25610000      9338.69
   CG321    CG321   CG3RC1     5   111.000000   446.432800   0.25610000      6694.40
   CG321    CG321    NG1T1     5   113.130000   425.345440   0.00000000         0.00
   CG321    CG321    NG2D1     5   112.000000   861.904000   0.00000000         0.00
   CG321    CG321   NG2R43     5   120.000000   585.760000   0.00000000         0.00
   CG321    CG321   NG2R51     5   120.000000   585.760000   0.00000000         0.00
   CG321    CG321   NG2R53     5   120.000000   585.760000   0.00000000         0.00
   CG321    CG321   NG2R61     5   112.000000   560.656000   0.00000000         0.00
   CG321    CG321    NG2S0     5   111.000000   585.760000   0.00000000         0.00
   CG321    CG321    NG2S1     5   113.500000   585.760000   0.00000000         0.00
   CG321    CG321    NG2S3     5   109.700000   228.446400   0.00000000         0.00
   CG321    CG321    NG301     5   107.000000   476.976000   0.00000000         0.00
   CG321    CG321    NG311     5   110.000000   365.681600   0.00000000         0.00
   CG321    CG321    NG321     5   120.000000   502.080000   0.00000000         0.00
   CG321    CG321   NG3C51     5   110.000000   365.681600   0.00000000         0.00
   CG321    CG321    OG301     5   111.500000   376.560000   0.00000000         0.00
   CG321    CG321    OG302     5   110.100000   633.457600   0.00000000         0.00
   CG321    CG321    OG303     5   110.100000   633.457600   0.00000000         0.00
   CG321    CG321    OG311     5   110.100000   633.457600   0.00000000         0.00
   CG321    CG321   OG3C61     5   111.500000   376.560000   0.00000000         0.00
   CG321    CG321   OG3R60     5   113.053400   585.508960   0.00000000         0.00
   CG321    CG321    SG301     5   112.500000   485.344000   0.00000000         0.00
   CG321    CG321    SG311     5   114.500000   485.344000   0.00000000         0.00
   CG321    CG321    SG3O1     5   105.500000   359.824000   0.00000000         0.00
   CG321    CG321    SG3O2     5   105.000000   376.560000   0.00000000         0.00
   CG321    CG321    SG3O3     5   105.000000   376.560000   0.00000000         0.00
   CG321    CG321    BRGA1     5   111.000000   594.128000   0.00000000         0.00
   CG321    CG321     HGA2     5   110.100000   221.752000   0.21790000     18853.10
   CG322    CG321    CG324     5   110.945500   345.933120   0.00000000         0.00
   CG322    CG321    CG331     5   113.810000   476.055520   0.25000000      6694.40
   CG322    CG321    NG301     5   109.346700   349.364000   0.00000000         0.00
   CG322    CG321    NG311     5   105.864100   364.091680   0.00000000         0.00
   CG322    CG321     HGA2     5   110.100000   289.532800   0.21790000     18853.10
   CG324    CG321    CG324     5   114.314800   458.315360   0.00000000         0.00
   CG324    CG321    CG331     5   110.500000   488.272800   0.25610000      9338.69
   CG324    CG321   CG3C50     5   104.127600   362.669120   0.00000000         0.00
   CG324    CG321   CG3RC1     5   112.684600   600.152960   0.00000000         0.00
   CG324    CG321   NG2R51     5   106.353000   454.047680   0.00000000         0.00
   CG324    CG321    NG2S0     5   113.500000   585.760000   0.00000000         0.00
   CG324    CG321    NG2S1     5   113.500000   585.760000   0.00000000         0.00
   CG324    CG321    NG301     5   110.222900   549.861280   0.00000000         0.00
   CG324    CG321    NG311     5   109.868900   466.599680   0.00000000         0.00
   CG324    CG321    OG301     5   110.100000   633.457600   0.00000000         0.00
   CG324    CG321    OG302     5   110.100000   633.457600   0.00000000         0.00
   CG324    CG321    OG303     5   110.100000   633.457600   0.00000000         0.00
   CG324    CG321    OG311     5   112.100000   633.457600   0.00000000         0.00
   CG324    CG321   OG3C61     5   106.500000   418.400000   0.00000000         0.00
   CG324    CG321    SG311     5   110.000000   585.760000   0.00000000         0.00
   CG324    CG321    SG3O1     5   104.500000   292.880000   0.00000000         0.00
   CG324    CG321    SG3O2     5   104.500000   292.880000   0.00000000         0.00
   CG324    CG321    SG3O3     5   104.500000   292.880000   0.00000000         0.00
   CG324    CG321     HGA2     5   110.100000   221.752000   0.21790000     18853.10
   CG331    CG321    CG331     5   114.000000   446.432800   0.25610000      6694.40
   CG331    CG321   CG3C31     5   111.000000   446.432800   0.00000000         0.00
   CG331    CG321   CG3C50     5   120.478100   587.098880   0.00000000         0.00
   CG331    CG321    NG1T1     5   114.300000   528.271840   0.00000000         0.00
   CG331    CG321    NG2D1     5   114.000000   518.816000   0.00000000         0.00
   CG331    CG321   NG2R51     5   120.000000   585.760000   0.00000000         0.00
   CG331    CG321   NG2R53     5   120.000000   585.760000   0.00000000         0.00
   CG331    CG321   NG2R61     5   112.230000   563.584800   0.00000000         0.00
   CG331    CG321    NG2S0     5   120.000000   585.760000   0.00000000         0.00
   CG331    CG321    NG2S1     5   120.000000   585.760000   0.00000000         0.00
   CG331    CG321    NG2S3     5   109.700000   228.446400   0.00000000         0.00
   CG331    CG321    NG301     5   115.770000   507.351840   0.00000000         0.00
   CG331    CG321    NG311     5   112.200000   365.681600   0.00000000         0.00
   CG331    CG321   NG3C51     5   110.000000   365.681600   0.00000000         0.00
   CG331    CG321    OG301     5   111.500000   376.560000   0.00000000         0.00
   CG331    CG321    OG302     5   110.100000   633.457600   0.00000000         0.00
   CG331    CG321    OG303     5   108.400000   585.760000   0.00000000         0.00
   CG331    CG321    OG311     5   110.100000   633.457600   0.00000000         0.00
   CG331    CG321    OG312     5   122.000000   543.920000   0.00000000         0.00
   CG331    CG321    SG2P1     5   110.310000   488.691200   0.00000000         0.00
   CG331    CG321    SG301     5   112.500000   485.344000   0.00000000         0.00
   CG331    CG321    SG311     5   114.500000   485.344000   0.00000000         0.00
   CG331    CG321    SG3O1     5   105.500000   418.400000   0.00000000         0.00
   CG331    CG321    SG3O2     5   105.000000   376.560000   0.00000000         0.00
   CG331    CG321    SG3O3     5   105.000000   376.560000   0.00000000         0.00
   CG331    CG321    CLGA1     5   112.200000   594.128000   0.00000000         0.00
   CG331    CG321    BRGA1     5   111.000000   594.128000   0.00000000         0.00
   CG331    CG321    BG201     5   112.000000   669.440000   0.00000000         0.00
   CG331    CG321     HGA2     5   110.100000   289.532800   0.21790000     18853.10
  CG3C31    CG321    NG2S0     5   111.000000   585.760000   0.00000000         0.00
  CG3C31    CG321    NG301     5   107.000000   476.976000   0.00000000         0.00
  CG3C31    CG321    NG311     5   110.000000   365.681600   0.00000000         0.00
  CG3C31    CG321   OG3C61     5   111.500000   376.560000   0.00000000         0.00
  CG3C31    CG321     HGA2     5   109.000000   351.456000   0.00000000         0.00
  CG3C41    CG321    NG2S0     5   111.000000   585.760000   0.00000000         0.00
  CG3C41    CG321    NG301     5   107.000000   476.976000   0.00000000         0.00
  CG3C41    CG321    NG311     5   110.000000   365.681600   0.00000000         0.00
  CG3C41    CG321     HGA2     5   109.000000   351.456000   0.00000000         0.00
  CG3C50    CG321    NG301     5   105.650200   531.535360   0.00000000         0.00
  CG3C50    CG321    NG311     5   101.102900   541.074880   0.00000000         0.00
  CG3C50    CG321    OG311     5   107.537900   580.320800   0.00000000         0.00
  CG3C50    CG321   OG3C61     5   110.100000   633.457600   0.00000000         0.00
  CG3C50    CG321     HGA2     5   109.000000   267.776000   0.21790000     18853.10
  CG3C51    CG321    NG321     5   109.415800   480.574240   0.00000000         0.00
  CG3C51    CG321    OG301     5   110.100000   633.457600   0.00000000         0.00
  CG3C51    CG321    OG303     5   110.100000   633.457600   0.00000000         0.00
  CG3C51    CG321    OG311     5   110.100000   633.457600   0.00000000         0.00
  CG3C51    CG321    SG311     5   112.500000   485.344000   0.00000000         0.00
  CG3C51    CG321     HGA2     5   110.100000   289.532800   0.21790000     18853.10
  CG3C53    CG321     HGA2     5   110.100000   279.742240   0.21790000     18853.10
  CG3RC1    CG321    NG301     5   110.143600   459.821600   0.00000000         0.00
  CG3RC1    CG321    NG311     5   111.061700   694.878720   0.00000000         0.00
  CG3RC1    CG321    OG303     5   110.100000   633.457600   0.00000000         0.00
  CG3RC1    CG321   OG3C61     5   110.100000   633.457600   0.00000000         0.00
  CG3RC1    CG321    SG311     5   112.500000   485.344000   0.00000000         0.00
  CG3RC1    CG321    SG3O2     5   107.499300   344.510560   0.00000000         0.00
  CG3RC1    CG321     HGA2     5   110.100000   288.696000   0.21790000     18853.10
   NG1T1    CG321     HGA2     5   109.310000   445.596000   0.00000000         0.00
   NG2D1    CG321    NG311     5    99.199000     8.451680   0.00000000         0.00
   NG2D1    CG321     HGA2     5   107.500000   376.560000   0.00000000         0.00
  NG2R43    CG321     HGA2     5   109.500000   430.952000   0.00000000         0.00
  NG2R51    CG321     HGA2     5   110.100000   279.742240   0.00000000         0.00
  NG2R53    CG321     HGA2     5   109.500000   430.952000   0.00000000         0.00
  NG2R61    CG321    OG311     5   112.866600   691.029440   0.00000000         0.00
  NG2R61    CG321     HGA2     5    98.710000   428.943680   0.00000000         0.00
   NG2S0    CG321    NG301     5   114.124900   871.025120   0.00000000         0.00
   NG2S0    CG321    NG311     5   108.106600   862.322400   0.00000000         0.00
   NG2S0    CG321     HGA2     5   109.500000   451.872000   0.00000000         0.00
   NG2S1    CG321    NG301     5   112.706200   838.306240   0.00000000         0.00
   NG2S1    CG321     HGA2     5   109.500000   430.952000   0.00000000         0.00
   NG2S3    CG321    NG311     5   116.620500   567.183040   0.00000000         0.00
   NG2S3    CG321     HGA2     5   105.200000   320.494400   0.00000000         0.00
   NG301    CG321    NG311     5   113.000000   753.120000   0.00000000         0.00
   NG301    CG321    SG311     5   119.200000   486.097120   0.00000000         0.00
   NG301    CG321     HGA2     5   109.000000   271.123200   0.00000000         0.00
   NG311    CG321    NG311     5   113.000000   753.120000   0.00000000         0.00
   NG311    CG321     HGA2     5   109.500000   271.123200   0.21300000     41840.00
   NG321    CG321     HGA2     5   109.500000   271.123200   0.21400000     41840.00
  NG3C51    CG321    OG311     5   114.611300   638.060000   0.00000000         0.00
  NG3C51    CG321     HGA2     5   109.500000   271.123200   0.21300000     41840.00
   NG3N1    CG321     HGA2     5   109.500000   271.123200   0.21300000     41840.00
   OG301    CG321    OG301     5   113.496500   816.633120   0.00000000         0.00
   OG301    CG321     HGA2     5   108.890000   384.091200   0.00000000         0.00
   OG302    CG321     HGA2     5   109.500000   502.080000   0.00000000         0.00
   OG303    CG321     HGA2     5   109.500000   502.080000   0.00000000         0.00
   OG311    CG321    SG311     5   112.270000   470.616320   0.00000000         0.00
   OG311    CG321     HGA2     5   108.890000   384.091200   0.00000000         0.00
   OG312    CG321     HGA2     5   118.300000   543.920000   0.00000000         0.00
  OG3C61    CG321   OG3C61     5   110.500000   376.560000   0.00000000         0.00
  OG3C61    CG321     HGA2     5   109.500000   376.560000   0.00000000         0.00
  OG3R60    CG321     HGA2     5   111.500000   460.240000   0.00000000         0.00
     PG1    CG321    SG311     5   109.280000   334.468960   0.00000000         0.00
     PG1    CG321     HGA2     5   110.000000   753.120000   0.18020000      4518.72
     PG2    CG321    SG311     5   104.580000   375.472160   0.00000000         0.00
     PG2    CG321     HGA2     5   110.000000   753.120000   0.18020000      4518.72
   SG2P1    CG321     HGA2     5   106.570000   280.160640   0.00000000         0.00
   SG301    CG321     HGA2     5   111.000000   317.984000   0.00000000         0.00
   SG311    CG321    SG311     5   117.000000   836.800000   0.00000000         0.00
   SG311    CG321     HGA2     5   111.300000   385.764800   0.00000000         0.00
   SG3O1    CG321     HGA2     5   109.000000   410.032000   0.00000000         0.00
   SG3O2    CG321    SG3O2     5   115.809000   220.831520   0.00000000         0.00
   SG3O2    CG321     HGA2     5   107.000000   376.560000   0.00000000         0.00
   SG3O3    CG321    SG3O3     5   108.875400   311.875360   0.00000000         0.00
   SG3O3    CG321     HGA2     5   107.000000   376.560000   0.00000000         0.00
   CLGA1    CG321     HGA2     5   107.000000   351.456000   0.00000000         0.00
   BRGA1    CG321     HGA2     5   106.000000   301.248000   0.00000000         0.00
   BG201    CG321     HGA2     5   109.000000   418.400000   0.00000000         0.00
    HGA2    CG321     HGA2     5   109.000000   297.064000   0.18020000      4518.72
   CG2O1    CG322    CG321     5   104.231300   283.675200   0.00000000         0.00
   CG2O1    CG322     FGA1     5   104.178300   292.796320   0.00000000         0.00
   CG2O1    CG322     HGA6     5   110.878800   329.029760   0.00000000         0.00
   CG2O3    CG322    CG321     5   111.320000   370.869760   0.00000000         0.00
   CG2O3    CG322     FGA1     5   106.590000   395.304320   0.24999000     25129.10
   CG2O3    CG322     HGA6     5   112.970000   232.546720   0.22340000     25145.84
   CG2O5    CG322    CG321     5   112.894600   387.103680   0.00000000         0.00
   CG2O5    CG322     FGA1     5   104.400300   593.625920   0.00000000         0.00
   CG2O5    CG322     HGA6     5   112.592400   321.163840   0.00000000         0.00
  CG2R61    CG322    CG321     5   117.126400   340.326560   0.00000000         0.00
  CG2R61    CG322    CG331     5   117.964500   419.822560   0.00000000         0.00
  CG2R61    CG322     FGA1     5   115.000000   418.400000   0.23570000     25104.00
   CG301    CG322    CG324     5   116.501900   532.121120   0.00000000         0.00
   CG301    CG322     FGA1     5   112.000000   368.192000   0.23690000     25104.00
   CG301    CG322     HGA6     5   112.000000   259.408000   0.21680000      2510.40
   CG311    CG322    CG321     5   122.040000   383.003360   0.25228000     25104.00
   CG311    CG322    CG324     5   117.256900   477.310720   0.00000000         0.00
   CG311    CG322     FGA1     5   112.000000   368.192000   0.23690000     25104.00
   CG311    CG322     HGA6     5   112.000000   259.408000   0.21680000      2510.40
   CG312    CG322    CG321     5   115.198400   453.294560   0.00000000         0.00
   CG312    CG322    CG331     5   112.696600   374.216960   0.00000000         0.00
   CG312    CG322     FGA1     5   104.222800   522.163200   0.00000000         0.00
   CG321    CG322    CG321     5   122.040000   383.003360   0.25228000     25104.00
   CG321    CG322    CG331     5   122.040000   383.003360   0.25228000     25104.00
   CG321    CG322     FGA1     5   112.000000   368.192000   0.23690000     25104.00
   CG321    CG322     HGA6     5   112.000000   259.408000   0.21680000      2510.40
   CG324    CG322     FGA1     5   102.379800   430.868320   0.00000000         0.00
   CG324    CG322     HGA6     5   111.565700   345.180000   0.00000000         0.00
   CG331    CG322    CG331     5   122.040000   383.003360   0.25228000     25104.00
   CG331    CG322     FGA1     5   112.000000   368.192000   0.23690000     25104.00
   CG331    CG322     HGA6     5   112.000000   259.408000   0.21680000      2510.40
  CG3C51    CG322     FGA1     5   107.476500   519.401760   0.00000000         0.00
  CG3C51    CG322     HGA6     5   111.214100   337.648800   0.00000000         0.00
  NG2R51    CG322     FGA1     5   109.806100   629.608320   0.00000000         0.00
  NG2R51    CG322     HGA6     5   106.127600   390.785600   0.00000000         0.00
    FGA1    CG322     HGA6     5   108.890000   481.160000   0.19970000      4184.00
    HGA6    CG322     HGA6     5   108.400000   297.064000   0.17460000      8702.72
   CG331    CG323    SG302     5   118.000000   460.240000   0.00000000         0.00
   CG331    CG323     HGA2     5   110.100000   289.532800   0.21790000     18853.10
   SG302    CG323     HGA2     5   112.300000   334.720000   0.00000000         0.00
   SG302    CG323     HGA3     5   112.300000   334.720000   0.00000000         0.00
    HGA2    CG323     HGA2     5   108.400000   297.064000   0.17750000     11715.20
    HGA3    CG323     HGA3     5   108.400000   297.064000   0.17750000     11715.20
   CG2D1    CG324    NG3P1     5   110.500000   418.400000   0.24850000     25940.80
   CG2D1    CG324    NG3P2     5   110.500000   418.400000   0.24850000     25940.80
   CG2D1    CG324     HGA2     5   110.000000   376.560000   0.00000000         0.00
  CG2DC1    CG324   NG2R52     5   112.262800   322.502720   0.00000000         0.00
  CG2DC1    CG324    NG3P2     5   110.500000   418.400000   0.24850000     25940.80
  CG2DC1    CG324     HGA2     5   110.000000   376.560000   0.00000000         0.00
  CG2DC2    CG324   NG2R52     5   112.262800   322.502720   0.00000000         0.00
  CG2DC2    CG324    NG3P2     5   110.500000   418.400000   0.24850000     25940.80
  CG2DC2    CG324     HGA2     5   110.000000   376.560000   0.00000000         0.00
   CG2O1    CG324    NG2P1     5   112.625100   314.051040   0.00000000         0.00
   CG2O1    CG324    NG3P1     5   110.000000   365.681600   0.00000000         0.00
   CG2O1    CG324    NG3P3     5   110.000000   365.681600   0.00000000         0.00
   CG2O1    CG324     HGA2     5   109.500000   276.144000   0.21630000     25104.00
   CG2O3    CG324    NG3P2     5   104.000000   585.760000   0.00000000         0.00
   CG2O3    CG324    NG3P3     5   110.000000   365.681600   0.00000000         0.00
   CG2O3    CG324     HGA2     5   109.500000   276.144000   0.21630000     25104.00
   CG2O5    CG324    NG3P1     5   110.000000   365.681600   0.00000000         0.00
   CG2O5    CG324     HGA2     5   109.500000   418.400000   0.00000000         0.00
  CG2R51    CG324    NG3P1     5   109.000000   435.136000   0.24510000     31798.40
  CG2R51    CG324    NG3P2     5   109.000000   435.136000   0.24510000     31798.40
  CG2R51    CG324    NG3P3     5   102.300000   209.200000   0.00000000         0.00
  CG2R51    CG324     HGA2     5   109.500000   460.240000   0.00000000         0.00
  CG2R53    CG324    NG3P3     5   102.300000   209.200000   0.00000000         0.00
  CG2R53    CG324     HGA2     5   109.500000   460.240000   0.00000000         0.00
  CG2R61    CG324    NG2P1     5   103.344700   550.530720   0.00000000         0.00
  CG2R61    CG324   NG2R61     5   115.200000   443.504000   0.00000000         0.00
  CG2R61    CG324    NG3P1     5   102.300000   376.560000   0.21010000     29288.00
  CG2R61    CG324    NG3P2     5   108.500000   451.872000   0.24300000     30961.60
  CG2R61    CG324    NG3P3     5   107.000000   376.560000   0.00000000         0.00
  CG2R61    CG324     HGA2     5   107.500000   412.542400   0.00000000         0.00
  CG2R62    CG324    NG3P1     5   102.300000   376.560000   0.21010000     29288.00
  CG2R62    CG324    NG3P2     5   107.000000   451.872000   0.22100000     30961.60
  CG2R62    CG324    NG3P3     5   108.500000   451.872000   0.24300000     30961.60
  CG2R62    CG324     HGA2     5   107.500000   412.542400   0.00000000         0.00
  CG2R64    CG324    NG3P3     5   108.500000   451.872000   0.24300000     30961.60
  CG2R64    CG324     HGA2     5   107.500000   412.542400   0.00000000         0.00
   CG301    CG324    NG3P1     5   110.000000   836.800000   0.00000000         0.00
   CG301    CG324    NG3P2     5   110.000000   334.720000   0.00000000         0.00
   CG301    CG324     HGA2     5   110.100000   221.752000   0.21790000     18853.10
   CG311    CG324    NG2P1     5   110.000000   566.513600   0.00000000         0.00
   CG311    CG324   NG2R52     5   110.000000   566.513600   0.00000000         0.00
   CG311    CG324    NG3P1     5   110.000000   836.800000   0.00000000         0.00
   CG311    CG324    NG3P2     5   110.000000   334.720000   0.00000000         0.00
   CG311    CG324    NG3P3     5   110.000000   566.513600   0.00000000         0.00
   CG311    CG324     HGA2     5   111.800000   221.752000   0.21790000     18853.10
   CG312    CG324    NG2P1     5   119.043500   514.380960   0.00000000         0.00
   CG312    CG324    NG3P1     5   108.760000   566.429920   0.00000000         0.00
   CG312    CG324     HGA2     5   110.100000   289.532800   0.21790000     18853.10
   CG314    CG324    NG3P1     5   107.688900   480.490560   0.00000000         0.00
   CG314    CG324    NG3P2     5   101.836300   451.872000   0.00000000         0.00
   CG314    CG324     HGA2     5   110.100000   279.742240   0.21790000     18853.10
   CG321    CG324    NG2O1     5   109.000000   475.302400   0.00000000         0.00
   CG321    CG324    NG2P1     5   110.000000   566.513600   0.00000000         0.00
   CG321    CG324   NG2R52     5   110.000000   566.513600   0.00000000         0.00
   CG321    CG324   NG2R61     5   112.000000   560.656000   0.00000000         0.00
   CG321    CG324    NG3P0     5   115.000000   566.513600   0.00000000         0.00
   CG321    CG324    NG3P1     5   110.000000   836.800000   0.00000000         0.00
   CG321    CG324    NG3P2     5   110.000000   334.720000   0.00000000         0.00
   CG321    CG324    NG3P3     5   110.000000   566.513600   0.00000000         0.00
   CG321    CG324     HGA2     5   111.800000   221.752000   0.21790000     18853.10
   CG321    CG324     HGP5     5   110.100000   279.742240   0.21790000     18853.10
   CG322    CG324    NG3P1     5   108.760000   566.429920   0.00000000         0.00
   CG322    CG324    NG3P2     5   108.760000   566.429920   0.00000000         0.00
   CG322    CG324     HGA2     5   110.100000   289.532800   0.21790000     18853.10
   CG324    CG324   NG2R52     5   102.606200   626.010080   0.00000000         0.00
   CG324    CG324    NG3P1     5   102.217200   606.428960   0.00000000         0.00
   CG324    CG324     HGA2     5   110.100000   221.752000   0.21790000     18853.10
   CG331    CG324    NG2P1     5   110.000000   566.513600   0.00000000         0.00
   CG331    CG324   NG2R61     5   112.230000   563.584800   0.00000000         0.00
   CG331    CG324    NG3P0     5   115.000000   566.513600   0.00000000         0.00
   CG331    CG324    NG3P1     5   110.000000   566.513600   0.00000000         0.00
   CG331    CG324    NG3P2     5   110.000000   566.513600   0.00000000         0.00
   CG331    CG324    NG3P3     5   110.000000   566.513600   0.00000000         0.00
   CG331    CG324     HGA2     5   110.100000   289.532800   0.21790000     18853.10
   CG331    CG324     HGP5     5   110.100000   279.742240   0.21790000     18853.10
  CG3C31    CG324    NG3P1     5   110.000000   566.513600   0.00000000         0.00
  CG3C31    CG324    NG3P2     5   110.000000   566.513600   0.00000000         0.00
  CG3C31    CG324    NG3P3     5   110.000000   566.513600   0.00000000         0.00
  CG3C31    CG324     HGA2     5   110.100000   289.532800   0.00000000         0.00
  CG3C41    CG324    NG3P1     5   110.000000   566.513600   0.00000000         0.00
  CG3C41    CG324    NG3P2     5   110.000000   566.513600   0.00000000         0.00
  CG3C41    CG324     HGA2     5   110.100000   289.532800   0.00000000         0.00
  CG3C50    CG324    NG3P1     5   110.000000   566.513600   0.00000000         0.00
  CG3C50    CG324    NG3P2     5   110.000000   566.513600   0.00000000         0.00
  CG3C50    CG324    NG3P3     5   110.000000   566.513600   0.00000000         0.00
  CG3C50    CG324     HGA2     5   109.000000   267.776000   0.21790000     18853.10
  CG3C51    CG324    NG3P3     5   110.000000   566.513600   0.00000000         0.00
  CG3C51    CG324     HGA2     5   110.100000   289.532800   0.21790000     18853.10
  CG3RC1    CG324    NG3P1     5   110.000000   566.513600   0.00000000         0.00
  CG3RC1    CG324    NG3P2     5   110.000000   566.513600   0.00000000         0.00
  CG3RC1    CG324     HGA2     5   110.100000   288.696000   0.21790000     18853.10
   NG2D1    CG324    NG2P1     5   104.699800   510.782720   0.00000000         0.00
   NG2D1    CG324     HGA2     5   107.500000   376.560000   0.00000000         0.00
   NG2O1    CG324     HGA2     5   106.300000   502.080000   0.00000000         0.00
   NG2P1    CG324     HGA2     5   110.100000   351.456000   0.00000000         0.00
  NG2R52    CG324     HGA2     5   110.100000   351.456000   0.00000000         0.00
  NG2R61    CG324   NG2R61     5   107.024000  1463.061120   0.00000000         0.00
  NG2R61    CG324     HGA2     5    98.710000   428.943680   0.00000000         0.00
   NG301    CG324    NG3P2     5   112.540000   639.900960   0.00000000         0.00
   NG301    CG324     HGA2     5   109.000000   271.123200   0.00000000         0.00
   NG3P0    CG324   OG3C61     5   113.619600   650.277280   0.00000000         0.00
   NG3P0    CG324     HGP5     5   109.500000   334.720000   0.21300000     22593.60
   NG3P1    CG324     HGA2     5   102.300000   376.560000   0.21010000     29288.00
   NG3P2    CG324     HGA2     5   102.300000   376.560000   0.21010000     29288.00
   NG3P3    CG324     HGA2     5   107.500000   376.560000   0.21010000     29288.00
  OG3C61    CG324     HGP5     5   109.336700   447.855360   0.00000000         0.00
    HGA2    CG324     HGA2     5   109.000000   297.064000   0.18020000      4518.72
    HGP5    CG324     HGP5     5   109.500000   200.832000   0.17670000     23430.40
   CG1N1    CG331     HGA3     5   110.500000   418.400000   0.00000000         0.00
   CG1T1    CG331     HGA3     5   111.500000   393.296000   0.00000000         0.00
   CG2D1    CG331     HGA3     5   111.500000   351.456000   0.00000000         0.00
  CG2D1O    CG331     HGA3     5   111.500000   351.456000   0.00000000         0.00
  CG2D2O    CG331     HGA3     5   111.500000   351.456000   0.00000000         0.00
  CG2DC1    CG331     HGA3     5   111.500000   351.456000   0.00000000         0.00
  CG2DC2    CG331     HGA3     5   111.500000   351.456000   0.00000000         0.00
   CG2N2    CG331     HGA3     5   109.500000   276.144000   0.21300000     25104.00
   CG2O1    CG331     HGA3     5   109.500000   276.144000   0.21630000     25104.00
   CG2O2    CG331     HGA3     5   109.500000   276.144000   0.21630000     25104.00
   CG2O3    CG331     HGA3     5   109.500000   276.144000   0.21630000     25104.00
   CG2O4    CG331     HGA3     5   109.500000   276.144000   0.21630000     25104.00
   CG2O5    CG331     HGA3     5   109.500000   418.400000   0.00000000         0.00
  CG2R51    CG331     HGA3     5   109.500000   460.240000   0.00000000         0.00
  CG2R52    CG331     HGA3     5   106.358000   290.034880   0.00000000         0.00
  CG2R53    CG331     HGA3     5   109.500000   460.240000   0.00000000         0.00
  CG2R61    CG331     HGA3     5   107.500000   412.542400   0.00000000         0.00
  CG2R62    CG331     HGA3     5   110.100000   279.742240   0.21790000     18853.10
  CG2R64    CG331     HGA3     5   110.100000   279.742240   0.21790000     18853.10
  CG2R71    CG331     HGA3     5   107.500000   412.542400   0.00000000         0.00
   CG301    CG331     HGA3     5   110.100000   279.742240   0.21790000     18853.10
   CG302    CG331     HGA3     5   110.500000   276.144000   0.21550000     32635.20
   CG311    CG331     HGA3     5   110.100000   279.742240   0.21790000     18853.10
   CG312    CG331     HGA3     5   110.500000   276.144000   0.21680000     30961.60
   CG314    CG331     HGA3     5   110.100000   279.742240   0.21790000     18853.10
   CG321    CG331     HGA3     5   110.100000   289.532800   0.21790000     18853.10
   CG322    CG331     HGA3     5   110.500000   276.144000   0.21810000     31798.40
   CG323    CG331     HGA3     5   110.100000   289.532800   0.21790000     18853.10
   CG324    CG331     HGA3     5   110.100000   289.532800   0.21790000     18853.10
   CG331    CG331     HGA3     5   110.100000   313.800000   0.21790000     18853.10
  CG3C31    CG331     HGA3     5   109.000000   351.456000   0.00000000         0.00
  CG3C41    CG331     HGA3     5   110.100000   289.532800   0.21790000     18853.10
  CG3C50    CG331     HGA3     5   110.100000   289.532800   0.21790000     18853.10
  CG3C51    CG331     HGA3     5   110.100000   289.532800   0.21790000     18853.10
  CG3C53    CG331     HGA3     5   110.100000   279.742240   0.21790000     18853.10
  CG3RC1    CG331     HGA3     5   110.100000   279.742240   0.21790000     18853.10
   NG2D1    CG331     HGA3     5   113.500000   351.456000   0.00000000         0.00
  NG2R43    CG331     HGA3     5   109.000000   326.352000   0.00000000         0.00
  NG2R51    CG331     HGA3     5   110.100000   279.742240   0.00000000         0.00
  NG2R53    CG331     HGA3     5   109.000000   326.352000   0.00000000         0.00
  NG2R61    CG331     HGA3     5   110.100000   279.742240   0.21790000     18853.10
   NG2S0    CG331     HGA3     5   105.000000   418.400000   0.00000000         0.00
   NG2S1    CG331     HGA3     5   109.500000   430.952000   0.00000000         0.00
   NG2S3    CG331     HGA3     5   107.500000   430.952000   0.00000000         0.00
   NG301    CG331     HGA3     5   109.700000   255.224000   0.21400000     41840.00
   NG311    CG331     HGA3     5   109.700000   255.224000   0.21400000     41840.00
  NG3C51    CG331     HGA3     5   109.700000   255.224000   0.21400000     41840.00
   NG3N1    CG331     HGA3     5   109.700000   255.224000   0.21400000     41840.00
   OG301    CG331     HGA3     5   108.890000   384.091200   0.00000000         0.00
   OG302    CG331     HGA3     5   109.500000   502.080000   0.00000000         0.00
   OG303    CG331     HGA3     5   109.500000   502.080000   0.00000000         0.00
   OG311    CG331     HGA3     5   108.890000   384.091200   0.00000000         0.00
   OG312    CG331     HGA3     5   118.300000   543.920000   0.00000000         0.00
     PG0    CG331     HGA3     5   110.000000   753.120000   0.18020000      4518.72
     PG1    CG331     HGA3     5   110.000000   753.120000   0.18020000      4518.72
   SG301    CG331     HGA3     5   111.000000   317.984000   0.00000000         0.00
   SG311    CG331     HGA3     5   111.300000   385.764800   0.00000000         0.00
   SG3O1    CG331     HGA3     5   110.600000   351.456000   0.00000000         0.00
   SG3O2    CG331     HGA3     5   108.500000   376.560000   0.00000000         0.00
   SG3O3    CG331     HGA3     5   111.300000   385.764800   0.00000000         0.00
   BG201    CG331     HGA3     5   111.000000   924.664000   0.00000000         0.00
    HGA3    CG331     HGA3     5   108.400000   297.064000   0.18020000      4518.72
   NG2O1    CG334     HGA3     5   108.000000   399.990400   0.00000000         0.00
   NG2P1    CG334     HGA3     5   110.100000   351.456000   0.00000000         0.00
  NG2R52    CG334     HGA3     5   107.000000   351.456000   0.00000000         0.00
  NG2R61    CG334     HGA3     5   104.812900   413.462880   0.00000000         0.00
   NG3P0    CG334     HGP5     5   109.500000   334.720000   0.21300000     22593.60
   NG3P1    CG334     HGA3     5   102.300000   376.560000   0.21010000     29288.00
   NG3P2    CG334     HGA3     5   102.300000   376.560000   0.21010000     29288.00
   NG3P3    CG334     HGA3     5   107.500000   376.560000   0.21010000     29288.00
    HGA3    CG334     HGA3     5   108.400000   297.064000   0.18020000      4518.72
    HGP5    CG334     HGP5     5   109.500000   200.832000   0.17670000     23430.40
   NG301   CG3AM0   HGAAM0     5   109.500000   292.880000   0.21400000     41840.00
  HGAAM0   CG3AM0   HGAAM0     5   108.400000   297.064000   0.18020000      4518.72
   NG311   CG3AM1   HGAAM1     5   109.700000   255.224000   0.21400000     41840.00
  HGAAM1   CG3AM1   HGAAM1     5   109.000000   299.574400   0.18020000      4518.72
   NG321   CG3AM2   HGAAM2     5   109.500000   271.123200   0.21400000     41840.00
  HGAAM2   CG3AM2   HGAAM2     5   109.470000   292.880000   0.18020000      4518.72
   CG2D1   CG3C31   CG3C31     5   113.189400   537.644000   0.00000000         0.00
   CG2D1   CG3C31     HGA1     5   113.687200   189.786240   0.00000000         0.00
   CG2O1   CG3C31    CG2O1     5   133.531000   785.671520   0.00000000         0.00
   CG2O1   CG3C31   CG3C31     5   102.711800   158.573600   0.00000000         0.00
   CG2O2   CG3C31   CG3C31     5   121.273800  2490.651520   0.00000000         0.00
   CG2O2   CG3C31     HGA1     5   111.127600    80.751200   0.00000000         0.00
   CG2O3   CG3C31   CG3C31     5   114.221500   463.838240   0.00000000         0.00
   CG2O3   CG3C31     HGA1     5   122.071700    66.190880   0.00000000         0.00
   CG2O5   CG3C31    CG321     5   111.518300    48.785440   0.00000000         0.00
   CG2O5   CG3C31   CG3C31     5   111.357700    52.300000   0.00000000         0.00
   CG2O5   CG3C31   OG3C31     5   134.081500    55.061440   0.00000000         0.00
  CG2R51   CG3C31   CG3C31     5   118.542200   157.820480   0.00000000         0.00
  CG2R51   CG3C31     HGA1     5   125.664900   247.274400   0.00000000         0.00
  CG2R52   CG3C31   CG3C31     5   111.311700   320.912800   0.00000000         0.00
  CG2R52   CG3C31     HGA1     5   110.345200   177.066880   0.00000000         0.00
  CG2R53   CG3C31   CG3C31     5   113.503300   213.551360   0.00000000         0.00
  CG2R53   CG3C31   NG2R53     5   116.117500   712.786240   0.00000000         0.00
  CG2R53   CG3C31     HGA1     5   111.585100   207.944800   0.00000000         0.00
  CG2R61   CG3C31    CG321     5   104.623000   481.327360   0.00000000         0.00
  CG2R61   CG3C31    CG324     5   113.319400   439.989440   0.00000000         0.00
  CG2R61   CG3C31   CG3C31     5   110.694900   335.473120   0.00000000         0.00
  CG2R61   CG3C31    NG321     5   125.584600   434.048160   0.00000000         0.00
  CG2R61   CG3C31    NG3P3     5    99.640400   373.463840   0.00000000         0.00
  CG2R61   CG3C31     HGA1     5   115.203000   224.429760   0.00000000         0.00
  CG2R62   CG3C31   CG3C31     5   114.007700   304.511520   0.00000000         0.00
  CG2R62   CG3C31     HGA1     5   117.745500   223.844000   0.00000000         0.00
  CG2R64   CG3C31   CG3C31     5   109.098000   262.671520   0.00000000         0.00
  CG2R64   CG3C31     HGA1     5   108.837400   178.740480   0.00000000         0.00
  CG2RC0   CG3C31   CG2RC0     5   105.516900   564.421600   0.00000000         0.00
  CG2RC0   CG3C31   CG3C31     5   126.324100   198.823680   0.00000000         0.00
   CG311   CG3C31   CG3C31     5   116.700000   563.584800   0.00000000         0.00
   CG311   CG3C31     HGA1     5   115.400000   251.040000   0.00000000         0.00
   CG321   CG3C31    CG321     5   110.841100   398.735200   0.00000000         0.00
   CG321   CG3C31   CG3C31     5   116.700000   563.584800   0.00000000         0.00
   CG321   CG3C31    NG3P1     5   106.925900   509.360160   0.00000000         0.00
   CG321   CG3C31    NG3P2     5   107.031900   109.453440   0.00000000         0.00
   CG321   CG3C31   OG3C31     5   115.500000   505.008800   0.00000000         0.00
   CG321   CG3C31    SG3O2     5    94.921900   415.136480   0.00000000         0.00
   CG321   CG3C31     HGA1     5   115.400000   251.040000   0.00000000         0.00
   CG324   CG3C31   CG3C31     5   120.000000   488.272800   0.00000000         0.00
   CG324   CG3C31   CG3RC1     5   111.966300   212.630880   0.00000000         0.00
   CG324   CG3C31    NG301     5   128.549100   405.094880   0.00000000         0.00
   CG324   CG3C31    NG311     5   131.194300   353.966400   0.00000000         0.00
   CG324   CG3C31   OG3C61     5   116.573000   371.622880   0.00000000         0.00
   CG324   CG3C31     HGA1     5   110.100000   289.532800   0.00000000         0.00
   CG331   CG3C31    CG331     5   116.429600   226.270720   0.00000000         0.00
   CG331   CG3C31   CG3C31     5   116.700000   563.584800   0.00000000         0.00
   CG331   CG3C31   CG3RC1     5   110.845200    63.262080   0.00000000         0.00
   CG331   CG3C31   OG3C31     5   115.500000   505.008800   0.00000000         0.00
   CG331   CG3C31     HGA1     5   115.400000   251.040000   0.00000000         0.00
  CG3C31   CG3C31   CG3C31     5   111.000000   647.264800   0.25610000      6694.40
  CG3C31   CG3C31   CG3C50     5   111.741500   286.855040   0.00000000         0.00
  CG3C31   CG3C31   CG3C51     5   119.381400   448.190080   0.00000000         0.00
  CG3C31   CG3C31   CG3C52     5   119.717800   197.066400   0.00000000         0.00
  CG3C31   CG3C31   CG3C54     5   120.000000   488.272800   0.00000000         0.00
  CG3C31   CG3C31   NG2R52     5   113.260200   354.384800   0.00000000         0.00
  CG3C31   CG3C31   NG2R53     5   128.713400   170.288800   0.00000000         0.00
  CG3C31   CG3C31    NG2S0     5   111.516900   370.869760   0.00000000         0.00
  CG3C31   CG3C31    NG301     5   116.108800   138.992480   0.00000000         0.00
  CG3C31   CG3C31    NG311     5   115.596000   218.739520   0.00000000         0.00
  CG3C31   CG3C31    NG321     5   119.582100   503.837280   0.00000000         0.00
  CG3C31   CG3C31    NG3P1     5   114.931700   595.550560   0.00000000         0.00
  CG3C31   CG3C31    NG3P2     5    60.624400    70.542240   0.00000000         0.00
  CG3C31   CG3C31    NG3P3     5   110.696300   373.463840   0.00000000         0.00
  CG3C31   CG3C31    OG301     5   108.697000   289.281760   0.00000000         0.00
  CG3C31   CG3C31   OG3C31     5   103.000000   251.040000   0.00000000         0.00
  CG3C31   CG3C31   OG3C61     5   109.186200   555.969920   0.00000000         0.00
  CG3C31   CG3C31    SG3O2     5   106.319500   408.442080   0.00000000         0.00
  CG3C31   CG3C31     HGA1     5   117.100000   192.464000   0.21790000     18853.10
  CG3C31   CG3C31     HGA2     5   117.100000   192.464000   0.21790000     18853.10
  CG3C50   CG3C31     HGA1     5   110.256500   213.300320   0.00000000         0.00
  CG3C51   CG3C31   OG3C31     5   115.394800   480.741600   0.00000000         0.00
  CG3C51   CG3C31     HGA1     5   118.948700   173.970720   0.00000000         0.00
  CG3C52   CG3C31   CG3C54     5   107.531200   524.004160   0.00000000         0.00
  CG3RC1   CG3C31   CG3RC1     5    58.500000   446.432800   0.00000000         0.00
  CG3RC1   CG3C31    NG321     5   118.558700   568.103520   0.00000000         0.00
  CG3RC1   CG3C31    NG3P3     5   108.555100   610.278240   0.00000000         0.00
  CG3RC1   CG3C31     FGA2     5   115.082700   241.249440   0.00000000         0.00
  CG3RC1   CG3C31     HGA1     5   110.100000   288.696000   0.21790000     18853.10
  CG3RC1   CG3C31     HGA2     5   110.100000   288.696000   0.21790000     18853.10
  NG2R52   CG3C31     HGA1     5   106.475900   232.881440   0.00000000         0.00
   NG2S0   CG3C31     HGA1     5   112.333800   263.508320   0.00000000         0.00
   NG321   CG3C31     HGA1     5   101.143400   279.072800   0.00000000         0.00
   NG3P2   CG3C31     HGA1     5   100.270600    98.156640   0.00000000         0.00
   NG3P3   CG3C31     HGA1     5   101.269900   365.346880   0.00000000         0.00
   OG301   CG3C31     HGA1     5   113.230900   298.151840   0.00000000         0.00
  OG3C31   CG3C31     HGA1     5   118.500000   535.552000   0.00000000         0.00
  OG3C31   CG3C31     HGA2     5   115.000000   573.208000   0.00000000         0.00
    FGA2   CG3C31     FGA2     5   109.877900   626.763200   0.00000000         0.00
    HGA2   CG3C31     HGA2     5   117.000000   192.464000   0.18020000      4518.72
   CG2O1   CG3C41   CG3C41     5   101.000000   794.960000   0.00000000         0.00
   CG2O1   CG3C41    NG2S1     5    95.908200   535.300960   0.00000000         0.00
   CG2O1   CG3C41     HGA1     5   113.000000   602.496000   0.00000000         0.00
   CG2O2   CG3C41   CG3C41     5   101.000000   794.960000   0.00000000         0.00
   CG2O2   CG3C41   CG3RC1     5   112.784800   320.745440   0.00000000         0.00
   CG2O2   CG3C41     HGA1     5   113.000000   602.496000   0.00000000         0.00
   CG2O3   CG3C41   CG3C41     5   101.000000   794.960000   0.00000000         0.00
   CG2O3   CG3C41   CG3RC1     5   103.695900   198.823680   0.00000000         0.00
   CG2O3   CG3C41     HGA1     5   113.000000   602.496000   0.00000000         0.00
   CG2O4   CG3C41   CG2R61     5   109.762500   222.337760   0.00000000         0.00
   CG2O4   CG3C41    CG321     5   115.504900   218.404800   0.00000000         0.00
   CG2O4   CG3C41    CG324     5   120.790400   245.684480   0.00000000         0.00
   CG2O4   CG3C41   CG3C41     5   101.000000   794.960000   0.00000000         0.00
   CG2O4   CG3C41   CG3RC1     5    83.681200   614.462240   0.00000000         0.00
   CG2O4   CG3C41   OG3C51     5    90.000000   711.280000   0.00000000         0.00
   CG2O4   CG3C41     HGA1     5   113.000000   602.496000   0.00000000         0.00
   CG2O4   CG3C41     HGA2     5   113.000000   602.496000   0.00000000         0.00
  CG2R51   CG3C41   CG3C41     5   113.228600   249.868480   0.00000000         0.00
  CG2R51   CG3C41    NG3P1     5   116.447000   412.793440   0.00000000         0.00
  CG2R52   CG3C41   CG2R53     5   107.679900  1127.336960   0.00000000         0.00
  CG2R52   CG3C41   CG3C41     5   111.875500   684.920800   0.00000000         0.00
  CG2R53   CG3C41    CG321     5   105.106400   418.483680   0.00000000         0.00
  CG2R53   CG3C41   CG3C41     5   106.000000   753.120000   0.00000000         0.00
  CG2R53   CG3C41   CG3RC1     5   100.929000   708.016480   0.00000000         0.00
  CG2R53   CG3C41   NG2R53     5   105.063200  1149.763200   0.00000000         0.00
  CG2R53   CG3C41    NG321     5   109.793900   602.830720   0.00000000         0.00
  CG2R53   CG3C41    SG3O2     5   100.425200   315.055200   0.00000000         0.00
  CG2R53   CG3C41     HGA1     5   112.300000   384.928000   0.00000000         0.00
  CG2R53   CG3C41     HGA2     5   112.300000   384.928000   0.00000000         0.00
  CG2R61   CG3C41    CG321     5   105.451000   558.564000   0.00000000         0.00
  CG2R61   CG3C41    CG324     5   103.831600   568.270880   0.00000000         0.00
  CG2R61   CG3C41   CG3C41     5   101.424800   483.335680   0.00000000         0.00
  CG2R61   CG3C41    NG311     5    83.192400   428.357920   0.00000000         0.00
  CG2R61   CG3C41    OG311     5   101.424000   583.249600   0.00000000         0.00
  CG2R61   CG3C41     HGA1     5    98.756700   352.125440   0.00000000         0.00
  CG2R62   CG3C41   CG3C41     5   111.803700   334.803680   0.00000000         0.00
  CG2R62   CG3C41     HGA1     5   108.275200   292.963680   0.00000000         0.00
  CG2R64   CG3C41   CG3C41     5   104.723000   431.788800   0.00000000         0.00
  CG2R64   CG3C41     HGA1     5    99.715500   255.391360   0.00000000         0.00
  CG2RC0   CG3C41   CG3C41     5    85.000000   383.254400   0.00000000         0.00
  CG2RC0   CG3C41     HGA2     5   112.300000   384.928000   0.00000000         0.00
   CG301   CG3C41   CG3C41     5   116.362500   554.547360   0.00000000         0.00
   CG301   CG3C41     HGA1     5   107.108000   357.229920   0.00000000         0.00
   CG311   CG3C41    CG324     5   111.521700   473.796160   0.00000000         0.00
   CG311   CG3C41   CG3C41     5   116.013600   479.235360   0.00000000         0.00
   CG321   CG3C41    CG321     5   119.853600   529.861760   0.00000000         0.00
   CG321   CG3C41    CG324     5   115.861000   637.390560   0.00000000         0.00
   CG321   CG3C41   CG3C41     5   122.351700   409.195200   0.00000000         0.00
   CG321   CG3C41   NG2R43     5   108.818400   496.138720   0.00000000         0.00
   CG321   CG3C41    NG311     5    98.140300   564.588960   0.00000000         0.00
   CG321   CG3C41    OG301     5   108.162100   518.397600   0.00000000         0.00
   CG321   CG3C41   OG3C51     5   107.497200   636.051680   0.00000000         0.00
   CG321   CG3C41   OG3C61     5   108.721400   584.421120   0.00000000         0.00
   CG321   CG3C41   OG3R60     5   118.553800   469.695840   0.00000000         0.00
   CG321   CG3C41    SG311     5   109.834700   419.738880   0.00000000         0.00
   CG321   CG3C41     HGA1     5   111.122900   293.549440   0.00000000         0.00
   CG324   CG3C41   CG3C41     5   106.838800   641.658240   0.00000000         0.00
   CG324   CG3C41   OG3C51     5   103.539400   454.382400   0.00000000         0.00
   CG331   CG3C41    CG331     5   119.417300   463.252480   0.00000000         0.00
   CG331   CG3C41   CG3C41     5   117.369800   393.798080   0.00000000         0.00
   CG331   CG3C41    NG3P2     5   114.851800   558.982400   0.00000000         0.00
   CG331   CG3C41     HGA1     5   113.704200   291.457440   0.00000000         0.00
  CG3C41   CG3C41   CG3C41     5   106.000000   585.760000   0.00000000         0.00
  CG3C41   CG3C41   CG3C51     5   111.339300   429.278400   0.00000000         0.00
  CG3C41   CG3C41   CG3C52     5   107.162500   377.480480   0.00000000         0.00
  CG3C41   CG3C41   CG3RC1     5    81.672600   663.917120   0.00000000         0.00
  CG3C41   CG3C41   NG2R43     5   104.500000   753.120000   0.00000000         0.00
  CG3C41   CG3C41   NG2R50     5    96.078800   674.460800   0.00000000         0.00
  CG3C41   CG3C41   NG2R51     5   110.611900   794.876320   0.00000000         0.00
  CG3C41   CG3C41   NG2R53     5   111.645000   723.413600   0.00000000         0.00
  CG3C41   CG3C41    NG2S1     5   115.158800   626.177440   0.00000000         0.00
  CG3C41   CG3C41    NG301     5   104.422500   826.256320   0.00000000         0.00
  CG3C41   CG3C41    NG311     5   101.050700   985.415680   0.00000000         0.00
  CG3C41   CG3C41   NG3C51     5   106.362600   782.408000   0.00000000         0.00
  CG3C41   CG3C41    NG3P1     5   111.991800   447.688000   0.00000000         0.00
  CG3C41   CG3C41    NG3P2     5    92.944400   865.418560   0.00000000         0.00
  CG3C41   CG3C41    NG3P3     5   114.282100   460.909440   0.00000000         0.00
  CG3C41   CG3C41    OG301     5   114.127200   568.187200   0.00000000         0.00
  CG3C41   CG3C41    OG311     5   112.474400   584.923200   0.00000000         0.00
  CG3C41   CG3C41   OG3C51     5    99.490000   744.752000   0.00000000         0.00
  CG3C41   CG3C41   OG3C61     5   113.208800   497.728640   0.00000000         0.00
  CG3C41   CG3C41   OG3R60     5   120.176000   495.301920   0.00000000         0.00
  CG3C41   CG3C41    SG311     5   118.419700   432.207200   0.00000000         0.00
  CG3C41   CG3C41    SG3O2     5    95.109300   313.883680   0.00000000         0.00
  CG3C41   CG3C41     FGA2     5   117.014000   534.213120   0.00000000         0.00
  CG3C41   CG3C41     HGA1     5   110.500000   384.928000   0.00000000         0.00
  CG3C41   CG3C41     HGA2     5   110.500000   384.928000   0.00000000         0.00
  CG3C51   CG3C41    SG3O2     5   106.193600   574.463200   0.00000000         0.00
  CG3C52   CG3C41   CG3C52     5   112.791200   479.235360   0.00000000         0.00
  CG3C52   CG3C41   OG3C51     5    90.746400   419.822560   0.00000000         0.00
  CG3RC1   CG3C41   CG3RC1     5    89.740400    33.053600   0.00000000         0.00
  CG3RC1   CG3C41    NG2S0     5   100.989600   738.476000   0.00000000         0.00
  CG3RC1   CG3C41    NG321     5   109.991300   607.516800   0.00000000         0.00
  CG3RC1   CG3C41    SG3O2     5   108.304600   195.309120   0.00000000         0.00
  CG3RC1   CG3C41     FGA2     5   117.668000   500.992160   0.00000000         0.00
  CG3RC1   CG3C41     HGA1     5   111.313700   309.448640   0.00000000         0.00
  CG3RC1   CG3C41     HGA2     5   109.489800   347.355680   0.00000000         0.00
  NG2R43   CG3C41     HGA1     5   110.800000   426.768000   0.00000000         0.00
  NG2R43   CG3C41     HGA2     5   110.800000   426.768000   0.00000000         0.00
  NG2R50   CG3C41   OG3C51     5    97.839100  1140.307360   0.00000000         0.00
  NG2R51   CG3C41     HGA1     5   103.681700   549.275520   0.00000000         0.00
   NG2S0   CG3C41     HGA2     5   113.250000   405.262240   0.00000000         0.00
   NG301   CG3C41     HGA2     5   109.730900   425.010720   0.00000000         0.00
   NG311   CG3C41     HGA2     5   106.015700   205.434400   0.00000000         0.00
   NG321   CG3C41     HGA1     5   106.961100   333.381120   0.00000000         0.00
  NG3C51   CG3C41   OG3C51     5    95.394100   442.583520   0.00000000         0.00
   NG3P2   CG3C41     HGA1     5   105.731100   433.880800   0.00000000         0.00
   NG3P2   CG3C41     HGA2     5   104.193400   472.959360   0.00000000         0.00
   NG3P3   CG3C41     HGA1     5    97.382500   369.447200   0.00000000         0.00
  OG3C51   CG3C41     HGA2     5   112.000000   460.240000   0.00000000         0.00
   SG3O2   CG3C41     HGA1     5   103.237400   276.395040   0.00000000         0.00
   SG3O2   CG3C41     HGA2     5   109.606100   130.373440   0.00000000         0.00
    FGA2   CG3C41     FGA2     5   108.750200   718.225440   0.00000000         0.00
    HGA2   CG3C41     HGA2     5   105.000000   234.304000   0.18067000      4518.72
  CG25C1   CG3C50    CG321     5   103.000000   376.560000   0.00000000         0.00
  CG25C1   CG3C50   OG3C51     5    94.441800   517.728160   0.00000000         0.00
  CG25C2   CG3C50    CG321     5   103.000000   376.560000   0.00000000         0.00
  CG25C2   CG3C50   OG3C51     5    94.441800   517.728160   0.00000000         0.00
   CG2D1   CG3C50    CG321     5   110.821500   449.361600   0.00000000         0.00
   CG2D1   CG3C50    SG311     5   110.941600   355.305280   0.00000000         0.00
   CG2O1   CG3C50    CG2O1     5   133.481100   304.093120   0.00000000         0.00
   CG2O1   CG3C50   CG3C52     5   112.300000   435.136000   0.00000000         0.00
   CG2O1   CG3C50    NG2S0     5   108.200000   418.400000   0.00000000         0.00
   CG2O1   CG3C50    NG2S1     5   108.200000   418.400000   0.00000000         0.00
   CG2O1   CG3C50    OG311     5   111.930000   378.149920   0.00000000         0.00
   CG2O2   CG3C50   CG3C50     5   112.300000   435.136000   0.00000000         0.00
   CG2O2   CG3C50   CG3C52     5   112.300000   435.136000   0.00000000         0.00
   CG2O2   CG3C50    NG321     5   103.635000   577.475680   0.00000000         0.00
   CG2O3   CG3C50    CG331     5   109.590700   359.154560   0.00000000         0.00
   CG2O3   CG3C50   CG3C50     5   112.300000   435.136000   0.00000000         0.00
   CG2O3   CG3C50   CG3C52     5   112.300000   435.136000   0.00000000         0.00
   CG2O3   CG3C50    NG3P3     5   106.000000   418.400000   0.00000000         0.00
   CG2O5   CG3C50    CG331     5   103.216600   311.875360   0.00000000         0.00
   CG2O5   CG3C50   OG3C51     5   110.629100   776.968800   0.00000000         0.00
  CG2R51   CG3C50   CG2RC0     5   103.000000   376.560000   0.00000000         0.00
  CG2R51   CG3C50    CG321     5   103.000000   376.560000   0.00000000         0.00
  CG2R51   CG3C50    CG331     5   103.000000   376.560000   0.00000000         0.00
  CG2R51   CG3C50   CG3C50     5   102.700000   937.216000   0.00000000         0.00
  CG2R51   CG3C50   CG3C52     5   102.700000   937.216000   0.00000000         0.00
  CG2R51   CG3C50   NG3C51     5   105.100000   585.760000   0.00000000         0.00
  CG2R51   CG3C50    OG311     5   115.500000   502.080000   0.00000000         0.00
  CG2R51   CG3C50   OG3C51     5   103.439900   669.607360   0.00000000         0.00
  CG2R52   CG3C50   CG2R53     5   103.000000   376.560000   0.00000000         0.00
  CG2R52   CG3C50   CG2RC0     5   103.000000   376.560000   0.00000000         0.00
  CG2R52   CG3C50    CG321     5   103.000000   376.560000   0.00000000         0.00
  CG2R52   CG3C50    CG331     5   103.000000   376.560000   0.00000000         0.00
  CG2R53   CG3C50   CG2R53     5   103.000000   376.560000   0.00000000         0.00
  CG2R53   CG3C50   CG2R57     5   103.000000   376.560000   0.00000000         0.00
  CG2R53   CG3C50   CG2R61     5   100.248700   555.300480   0.00000000         0.00
  CG2R53   CG3C50   CG2RC0     5   103.000000   376.560000   0.00000000         0.00
  CG2R53   CG3C50    CG302     5    98.946900   259.659040   0.00000000         0.00
  CG2R53   CG3C50    CG321     5   103.000000   376.560000   0.00000000         0.00
  CG2R53   CG3C50    CG331     5   104.703700   835.544800   0.00000000         0.00
  CG2R53   CG3C50   CG3C50     5   106.500000   585.760000   0.00000000         0.00
  CG2R53   CG3C50   CG3C51     5   106.500000   585.760000   0.00000000         0.00
  CG2R53   CG3C50   CG3C52     5   106.500000   585.760000   0.00000000         0.00
  CG2R53   CG3C50   CG3RC1     5   106.500000   585.760000   0.00000000         0.00
  CG2R53   CG3C50   NG2R50     5    94.215500   823.662240   0.00000000         0.00
  CG2R53   CG3C50   NG2R53     5   114.412700   474.214560   0.00000000         0.00
  CG2R53   CG3C50    NG311     5   105.000000   573.208000   0.00000000         0.00
  CG2R53   CG3C50   NG3C51     5   105.100000   585.760000   0.00000000         0.00
  CG2R53   CG3C50    OG311     5   115.500000   502.080000   0.00000000         0.00
  CG2R53   CG3C50   OG3C51     5    93.509300   272.629440   0.00000000         0.00
  CG2R57   CG3C50    CG331     5   103.000000   376.560000   0.00000000         0.00
  CG2R57   CG3C50   NG2R53     5    91.262700   388.860960   0.00000000         0.00
  CG2R61   CG3C50   CG2RC0     5    98.273600   399.823040   0.00000000         0.00
  CG2R61   CG3C50    CG321     5    98.733100   430.366240   0.00000000         0.00
  CG2R61   CG3C50    CG331     5   108.840200   443.336640   0.00000000         0.00
  CG2R61   CG3C50   CG3C50     5    99.442900   230.622080   0.00000000         0.00
  CG2R61   CG3C50   CG3C51     5   102.367700   389.530400   0.00000000         0.00
  CG2R61   CG3C50   CG3C52     5   109.273400   372.794400   0.00000000         0.00
  CG2R61   CG3C50   CG3RC1     5   100.512200   346.184160   0.00000000         0.00
  CG2R61   CG3C50   NG2R53     5   100.845400   683.330880   0.00000000         0.00
  CG2R61   CG3C50    NG3P3     5   106.127600   538.229760   0.00000000         0.00
  CG2R61   CG3C50    OG311     5    93.979800   569.107680   0.00000000         0.00
  CG2R61   CG3C50   OG3C51     5   107.080800   629.692000   0.00000000         0.00
  CG2R62   CG3C50   CG3C52     5   104.175400   365.765280   0.00000000         0.00
  CG2R62   CG3C50    OG311     5    96.027700   523.836800   0.00000000         0.00
  CG2R64   CG3C50    CG331     5    93.193500   429.613120   0.00000000         0.00
  CG2R64   CG3C50   CG3C52     5   102.217900   682.326720   0.00000000         0.00
  CG2R64   CG3C50   NG3C51     5    99.804800   730.024320   0.00000000         0.00
  CG2RC0   CG3C50   CG2RC0     5   108.309600   530.865920   0.00000000         0.00
  CG2RC0   CG3C50    CG302     5   105.162300   336.058880   0.00000000         0.00
  CG2RC0   CG3C50    CG321     5   105.000000   376.560000   0.00000000         0.00
  CG2RC0   CG3C50    CG331     5   104.255500   397.647360   0.00000000         0.00
  CG2RC0   CG3C50   CG3C31     5   105.000000   376.560000   0.00000000         0.00
  CG2RC0   CG3C50   CG3C51     5   102.700000   937.216000   0.00000000         0.00
  CG2RC0   CG3C50   CG3C52     5    98.563800   699.230080   0.00000000         0.00
  CG2RC0   CG3C50    NG311     5   105.000000   573.208000   0.00000000         0.00
  CG2RC0   CG3C50    NG321     5   109.510000   616.303200   0.00000000         0.00
  CG2RC0   CG3C50    NG3P3     5   109.500000   644.336000   0.00000000         0.00
  CG2RC0   CG3C50    OG311     5   103.211000   654.544960   0.00000000         0.00
  CG2RC0   CG3C50   OG3C51     5   113.106200   687.514880   0.00000000         0.00
   CG301   CG3C50    CG331     5   110.000000   485.344000   0.25610000      9338.69
   CG301   CG3C50   NG2R51     5   103.053200   781.152800   0.00000000         0.00
   CG301   CG3C50   NG3C51     5    93.460000   380.158240   0.00000000         0.00
   CG302   CG3C50   CG3C52     5    89.851900   289.030720   0.00000000         0.00
   CG302   CG3C50    NG321     5    99.527500   469.277440   0.00000000         0.00
   CG302   CG3C50    OG311     5   100.819500   374.719040   0.00000000         0.00
   CG311   CG3C50    CG311     5   110.000000   485.344000   0.25610000      9338.69
   CG311   CG3C50    CG324     5   118.904600   374.551680   0.00000000         0.00
   CG311   CG3C50   CG3C52     5   115.000000   485.344000   0.25610000      6694.40
   CG311   CG3C50   OG3C51     5   111.500000   376.560000   0.00000000         0.00
   CG311   CG3C50   OG3C61     5   106.310800   571.450720   0.00000000         0.00
   CG311   CG3C50    SG311     5   116.559600   453.210880   0.00000000         0.00
   CG321   CG3C50    CG321     5   110.000000   485.344000   0.25610000      9338.69
   CG321   CG3C50    CG324     5   116.589300   363.171200   0.00000000         0.00
   CG321   CG3C50    CG331     5   110.000000   485.344000   0.25610000      9338.69
   CG321   CG3C50   CG3C51     5   115.000000   485.344000   0.25610000      6694.40
   CG321   CG3C50   CG3C52     5   104.132500   294.888320   0.00000000         0.00
   CG321   CG3C50   CG3C54     5   117.326900   355.388960   0.00000000         0.00
   CG321   CG3C50   NG2R52     5   111.067700   433.211360   0.00000000         0.00
   CG321   CG3C50   NG2R53     5   111.082000   500.992160   0.00000000         0.00
   CG321   CG3C50    NG301     5   100.783800   493.042560   0.00000000         0.00
   CG321   CG3C50    NG321     5    97.670400   428.776320   0.00000000         0.00
   CG321   CG3C50   NG3C51     5    93.460000   380.158240   0.00000000         0.00
   CG321   CG3C50    NG3P1     5    99.417500   640.737760   0.00000000         0.00
   CG321   CG3C50    NG3P2     5    97.913300   648.268960   0.00000000         0.00
   CG321   CG3C50    NG3P3     5    95.666400   590.697120   0.00000000         0.00
   CG321   CG3C50    OG311     5   100.270400   686.259680   0.00000000         0.00
   CG321   CG3C50   OG3C51     5   111.500000   376.560000   0.00000000         0.00
   CG321   CG3C50   OG3C61     5   102.241200   592.036000   0.00000000         0.00
   CG321   CG3C50   OG3R60     5    99.575300   630.779840   0.00000000         0.00
   CG321   CG3C50    SG311     5   116.549300   497.477600   0.00000000         0.00
   CG324   CG3C50   CG3C52     5   109.830000   489.276960   0.25387000      6368.05
   CG324   CG3C50   NG3C51     5    90.081400   401.580320   0.00000000         0.00
   CG324   CG3C50    OG311     5    92.341100   571.534400   0.00000000         0.00
   CG324   CG3C50   OG3C51     5   103.880000   376.560000   0.00000000         0.00
   CG331   CG3C50    CG331     5   110.000000   485.344000   0.25610000      9338.69
   CG331   CG3C50   CG3C50     5   115.000000   485.344000   0.25610000      6694.40
   CG331   CG3C50   CG3C51     5   115.000000   485.344000   0.25610000      6694.40
   CG331   CG3C50   CG3C52     5   109.863800   493.963040   0.00000000         0.00
   CG331   CG3C50   CG3C54     5   109.143200   468.022240   0.00000000         0.00
   CG331   CG3C50   CG3RC1     5   108.500000   446.432800   0.25610000      6694.40
   CG331   CG3C50   NG2R51     5   102.044500   567.936160   0.00000000         0.00
   CG331   CG3C50   NG2R52     5   102.763200   519.401760   0.00000000         0.00
   CG331   CG3C50   NG2R53     5   113.581000  1535.025920   0.00000000         0.00
   CG331   CG3C50    NG2S0     5   115.545700   629.524640   0.00000000         0.00
   CG331   CG3C50    NG321     5   118.213700   640.235680   0.00000000         0.00
   CG331   CG3C50   NG3C51     5    93.460000   380.158240   0.00000000         0.00
   CG331   CG3C50    NG3P3     5   114.269700   420.324640   0.00000000         0.00
   CG331   CG3C50    OG311     5   102.722000   572.789600   0.00000000         0.00
   CG331   CG3C50   OG3C51     5   109.619600   504.339360   0.00000000         0.00
   CG331   CG3C50    SG311     5   107.116000   421.245120   0.00000000         0.00
   CG331   CG3C50    SG3O2     5   112.672000   381.497120   0.00000000         0.00
   CG331   CG3C50     FGA1     5   109.785900   485.762400   0.00000000         0.00
  CG3C31   CG3C50   CG3C52     5   104.824300   444.340800   0.00000000         0.00
  CG3C31   CG3C50    OG311     5    95.880400   652.452960   0.00000000         0.00
  CG3C50   CG3C50   CG3C50     5   109.500000   485.344000   0.25610000      9338.69
  CG3C50   CG3C50   CG3C51     5   109.500000   485.344000   0.25610000      9338.69
  CG3C50   CG3C50   CG3C52     5   109.500000   485.344000   0.25610000      9338.69
  CG3C50   CG3C50   NG2R53     5   107.195500   391.622400   0.00000000         0.00
  CG3C50   CG3C50    NG321     5   107.500000   566.513600   0.00000000         0.00
  CG3C50   CG3C50    NG3P3     5   108.500000   585.760000   0.00000000         0.00
  CG3C50   CG3C50    OG311     5   110.000000   633.457600   0.00000000         0.00
  CG3C50   CG3C50   OG3C51     5   111.100000   376.560000   0.00000000         0.00
  CG3C50   CG3C50   OG3C61     5   102.859900   574.714240   0.00000000         0.00
  CG3C51   CG3C50   CG3C51     5   109.500000   485.344000   0.25610000      9338.69
  CG3C51   CG3C50   CG3C52     5   109.500000   485.344000   0.25610000      9338.69
  CG3C51   CG3C50   CG3C54     5   111.000000   446.432800   0.25610000      6694.40
  CG3C51   CG3C50   NG2R53     5   109.477900   433.964480   0.00000000         0.00
  CG3C51   CG3C50    NG2S0     5   110.800000   585.760000   0.00000000         0.00
  CG3C51   CG3C50   NG3C51     5   107.600000   702.912000   0.00000000         0.00
  CG3C51   CG3C50    OG311     5   110.000000   633.457600   0.00000000         0.00
  CG3C51   CG3C50   OG3C51     5   111.100000   376.560000   0.00000000         0.00
  CG3C51   CG3C50     FGA2     5   112.000000   368.192000   0.23690000     25104.00
  CG3C52   CG3C50   CG3C52     5    94.742600  1171.603680   0.00000000         0.00
  CG3C52   CG3C50   CG3C53     5   111.000000   446.432800   0.25610000      6694.40
  CG3C52   CG3C50   CG3C54     5   111.000000   446.432800   0.25610000      6694.40
  CG3C52   CG3C50   CG3RC1     5   103.700000   446.432800   0.25610000      6694.40
  CG3C52   CG3C50   NG2R50     5   100.529300   706.259200   0.00000000         0.00
  CG3C52   CG3C50   NG2R53     5   107.456100   672.536160   0.00000000         0.00
  CG3C52   CG3C50    NG2S0     5   110.800000   585.760000   0.00000000         0.00
  CG3C52   CG3C50    NG2S1     5   110.800000   585.760000   0.00000000         0.00
  CG3C52   CG3C50    NG301     5   111.000000   920.480000   0.00000000         0.00
  CG3C52   CG3C50    NG311     5   113.000000   920.480000   0.00000000         0.00
  CG3C52   CG3C50    NG321     5   107.579700   523.418400   0.00000000         0.00
  CG3C52   CG3C50   NG3C51     5   107.600000   702.912000   0.00000000         0.00
  CG3C52   CG3C50    NG3P1     5   108.500000   585.760000   0.00000000         0.00
  CG3C52   CG3C50    NG3P2     5   108.500000   585.760000   0.00000000         0.00
  CG3C52   CG3C50    NG3P3     5   108.500000   585.760000   0.00000000         0.00
  CG3C52   CG3C50    OG311     5   110.000000   633.457600   0.00000000         0.00
  CG3C52   CG3C50   OG3C51     5   111.100000   376.560000   0.00000000         0.00
  CG3C52   CG3C50   OG3C61     5   110.090000   530.865920   0.00000000         0.00
  CG3C52   CG3C50   OG3R60     5    98.654100   648.352640   0.00000000         0.00
  CG3C52   CG3C50    SG311     5   107.690000   589.023520   0.00000000         0.00
  CG3C52   CG3C50     FGA1     5   112.000000   368.192000   0.23690000     25104.00
  CG3C52   CG3C50     FGA2     5   112.000000   368.192000   0.23690000     25104.00
  CG3C54   CG3C50   NG2R52     5    98.652500   789.269760   0.00000000         0.00
  CG3C54   CG3C50   NG3C51     5    75.715900   301.833760   0.00000000         0.00
  CG3RC1   CG3C50   NG2R53     5   107.714400   402.082400   0.00000000         0.00
  CG3RC1   CG3C50   NG3C51     5   107.600000   702.912000   0.00000000         0.00
  CG3RC1   CG3C50    OG311     5   110.000000   633.457600   0.00000000         0.00
  CG3RC1   CG3C50   OG3C51     5   111.100000   376.560000   0.00000000         0.00
  NG2R51   CG3C50   NG3C51     5   104.603800  1393.272000   0.00000000         0.00
  NG2R53   CG3C50   NG2R53     5   119.114300   631.951360   0.00000000         0.00
   NG2S0   CG3C50    NG311     5   106.891300   542.999520   0.00000000         0.00
   NG2S0   CG3C50    OG311     5   114.200000   417.228480   0.00000000         0.00
   NG2S1   CG3C50    NG311     5    95.957200   584.588480   0.00000000         0.00
   NG301   CG3C50    NG301     5   102.109900   930.688960   0.00000000         0.00
   NG311   CG3C50    NG311     5    92.687000   319.071840   0.00000000         0.00
   NG321   CG3C50    OG311     5   111.759900   848.598880   0.00000000         0.00
  NG3C51   CG3C50   NG3C51     5   100.514100  1166.164480   0.00000000         0.00
  NG3C51   CG3C50    OG311     5   102.606000   409.529920   0.00000000         0.00
   NG3P3   CG3C50    OG311     5   100.380200   965.332480   0.00000000         0.00
   OG311   CG3C50   OG3C51     5   116.930200   638.729440   0.00000000         0.00
  OG3C51   CG3C50   OG3C51     5   112.872400   775.629920   0.00000000         0.00
  OG3C61   CG3C50   OG3C61     5   104.572600   685.590240   0.00000000         0.00
   SG311   CG3C50    SG311     5   108.955600   625.173280   0.00000000         0.00
   SG3O2   CG3C50    SG3O2     5   114.584400   328.025600   0.00000000         0.00
    FGA2   CG3C50     FGA2     5   106.582500   795.880480   0.00000000         0.00
   CG2D1   CG3C51   CG3C51     5   111.550200   176.481120   0.00000000         0.00
   CG2D1   CG3C51   OG3C51     5   109.721100   868.849440   0.00000000         0.00
   CG2D1   CG3C51     HGA1     5   103.702800   139.578240   0.00000000         0.00
   CG2O1   CG3C51   CG2R51     5   106.410000   530.614880   0.00000000         0.00
   CG2O1   CG3C51   CG2RC0     5   106.410000   530.614880   0.00000000         0.00
   CG2O1   CG3C51   CG3C50     5   112.300000   435.136000   0.00000000         0.00
   CG2O1   CG3C51   CG3C51     5   112.300000   435.136000   0.00000000         0.00
   CG2O1   CG3C51   CG3C52     5   112.300000   435.136000   0.00000000         0.00
   CG2O1   CG3C51   CG3C53     5    92.881900   381.246080   0.00000000         0.00
   CG2O1   CG3C51    NG2S0     5   108.200000   418.400000   0.00000000         0.00
   CG2O1   CG3C51   NG3C51     5   113.340000   606.680000   0.00000000         0.00
   CG2O1   CG3C51   OG3C51     5   104.390800   523.251040   0.00000000         0.00
   CG2O1   CG3C51     HGA1     5   112.000000   418.400000   0.00000000         0.00
   CG2O2   CG3C51   CG2R51     5   106.410000   530.614880   0.00000000         0.00
   CG2O2   CG3C51   CG2R53     5   106.410000   530.614880   0.00000000         0.00
   CG2O2   CG3C51   CG2RC0     5   106.410000   530.614880   0.00000000         0.00
   CG2O2   CG3C51   CG3C50     5   112.300000   435.136000   0.00000000         0.00
   CG2O2   CG3C51   CG3C52     5   112.300000   435.136000   0.00000000         0.00
   CG2O2   CG3C51   CG3RC1     5   112.300000   435.136000   0.00000000         0.00
   CG2O2   CG3C51    NG2S0     5   108.200000   418.400000   0.00000000         0.00
   CG2O2   CG3C51   NG3C51     5   113.340000   606.680000   0.00000000         0.00
   CG2O2   CG3C51     HGA1     5   112.000000   418.400000   0.00000000         0.00
   CG2O3   CG3C51   CG2R53     5   110.754900   211.877760   0.00000000         0.00
   CG2O3   CG3C51   CG2RC0     5   106.410000   530.614880   0.00000000         0.00
   CG2O3   CG3C51   CG3C50     5   112.300000   435.136000   0.00000000         0.00
   CG2O3   CG3C51   CG3C51     5   112.300000   435.136000   0.00000000         0.00
   CG2O3   CG3C51   CG3C52     5   112.300000   435.136000   0.00000000         0.00
   CG2O3   CG3C51   CG3RC1     5   112.300000   435.136000   0.00000000         0.00
   CG2O3   CG3C51    NG2S0     5   108.200000   418.400000   0.00000000         0.00
   CG2O3   CG3C51   OG3C51     5   100.318100   342.000160   0.00000000         0.00
   CG2O3   CG3C51    SG311     5    90.333200   240.747360   0.00000000         0.00
   CG2O3   CG3C51     HGA1     5   112.000000   418.400000   0.00000000         0.00
   CG2O5   CG3C51    CG321     5   106.022200   376.141600   0.00000000         0.00
   CG2O5   CG3C51    CG331     5   108.374800   351.958080   0.00000000         0.00
   CG2O5   CG3C51   CG3C51     5   112.300000   435.136000   0.00000000         0.00
   CG2O5   CG3C51   CG3C52     5   112.300000   435.136000   0.00000000         0.00
   CG2O5   CG3C51     HGA1     5   112.000000   418.400000   0.00000000         0.00
  CG2R51   CG3C51   CG2R53     5   108.000000   376.560000   0.00000000         0.00
  CG2R51   CG3C51   CG2R61     5   108.118600   257.148640   0.00000000         0.00
  CG2R51   CG3C51   CG2RC0     5   107.300000   334.720000   0.00000000         0.00
  CG2R51   CG3C51    CG321     5    97.096200   188.112640   0.00000000         0.00
  CG2R51   CG3C51    CG331     5   103.000000   376.560000   0.00000000         0.00
  CG2R51   CG3C51   CG3C51     5   102.700000   937.216000   0.00000000         0.00
  CG2R51   CG3C51   CG3C52     5   102.700000   937.216000   0.00000000         0.00
  CG2R51   CG3C51    NG2S0     5   105.910000   573.040640   0.00000000         0.00
  CG2R51   CG3C51    NG311     5   105.000000   573.208000   0.00000000         0.00
  CG2R51   CG3C51   NG3C51     5   105.100000   585.760000   0.00000000         0.00
  CG2R51   CG3C51    OG301     5   112.181500   315.808320   0.00000000         0.00
  CG2R51   CG3C51    OG311     5   115.500000   502.080000   0.00000000         0.00
  CG2R51   CG3C51   OG3C51     5   102.400000   627.600000   0.00000000         0.00
  CG2R51   CG3C51    SG311     5   116.370000   385.681120   0.00000000         0.00
  CG2R51   CG3C51    SG3O1     5    97.582400   241.333120   0.00000000         0.00
  CG2R51   CG3C51     HGA1     5   110.100000   401.664000   0.00000000         0.00
  CG2R52   CG3C51   CG2R53     5   108.000000   376.560000   0.00000000         0.00
  CG2R52   CG3C51    CG331     5   103.000000   376.560000   0.00000000         0.00
  CG2R52   CG3C51     HGA1     5   111.000000   485.344000   0.00000000         0.00
  CG2R53   CG3C51   CG2R53     5   108.000000   376.560000   0.00000000         0.00
  CG2R53   CG3C51    CG301     5   103.000000   376.560000   0.00000000         0.00
  CG2R53   CG3C51    CG321     5   103.000000   376.560000   0.00000000         0.00
  CG2R53   CG3C51    CG331     5   103.000000   376.560000   0.00000000         0.00
  CG2R53   CG3C51   CG3C50     5   106.500000   585.760000   0.00000000         0.00
  CG2R53   CG3C51   CG3C51     5   106.500000   585.760000   0.00000000         0.00
  CG2R53   CG3C51   CG3C52     5   106.500000   585.760000   0.00000000         0.00
  CG2R53   CG3C51   CG3RC1     5   106.500000   585.760000   0.00000000         0.00
  CG2R53   CG3C51   NG2R53     5   106.674800   727.764960   0.00000000         0.00
  CG2R53   CG3C51    NG2S1     5   105.490000   572.622240   0.00000000         0.00
  CG2R53   CG3C51    NG321     5   105.000000   573.208000   0.00000000         0.00
  CG2R53   CG3C51   NG3C51     5   105.100000   585.760000   0.00000000         0.00
  CG2R53   CG3C51   OG3C51     5   102.400000   627.600000   0.00000000         0.00
  CG2R53   CG3C51    SG311     5   106.000000   331.623840   0.00000000         0.00
  CG2R53   CG3C51     HGA1     5   111.000000   485.344000   0.00000000         0.00
  CG2R57   CG3C51   CG2RC0     5   107.300000   334.720000   0.00000000         0.00
  CG2R57   CG3C51   CG3C52     5   102.700000   937.216000   0.00000000         0.00
  CG2R57   CG3C51   CG3C53     5   103.300000   435.136000   0.00000000         0.00
  CG2R57   CG3C51   NG3C51     5   105.100000   585.760000   0.00000000         0.00
  CG2R57   CG3C51   OG3C51     5   102.400000   627.600000   0.00000000         0.00
  CG2R57   CG3C51     HGA1     5   110.100000   401.664000   0.00000000         0.00
  CG2R61   CG3C51   CG2RC0     5   108.078400   291.624800   0.00000000         0.00
  CG2R61   CG3C51   CG3C52     5   106.972200   302.419520   0.00000000         0.00
  CG2R61   CG3C51   NG3C51     5   101.383800   306.101440   0.00000000         0.00
  CG2R61   CG3C51     HGA1     5   109.382500   293.549440   0.00000000         0.00
  CG2R62   CG3C51   CG3C52     5   117.062400   306.603520   0.00000000         0.00
  CG2R62   CG3C51   CG3C54     5    98.907200   295.055680   0.00000000         0.00
  CG2R62   CG3C51     HGA1     5   109.133500   245.182400   0.00000000         0.00
  CG2R64   CG3C51   CG3C52     5    99.795600   247.776480   0.00000000         0.00
  CG2R64   CG3C51    SG311     5   106.545200   486.515520   0.00000000         0.00
  CG2R64   CG3C51     HGA1     5   103.940500   347.523040   0.00000000         0.00
  CG2RC0   CG3C51   CG2RC0     5    95.000000   334.720000   0.00000000         0.00
  CG2RC0   CG3C51    CG331     5   105.000000   376.560000   0.00000000         0.00
  CG2RC0   CG3C51   CG3C51     5   102.700000   937.216000   0.00000000         0.00
  CG2RC0   CG3C51   CG3C52     5   102.700000   937.216000   0.00000000         0.00
  CG2RC0   CG3C51   CG3RC1     5   102.700000   937.216000   0.00000000         0.00
  CG2RC0   CG3C51   NG2R57     5    92.676000   586.931520   0.00000000         0.00
  CG2RC0   CG3C51    NG321     5   105.000000   573.208000   0.00000000         0.00
  CG2RC0   CG3C51   NG3C51     5   105.100000   585.760000   0.00000000         0.00
  CG2RC0   CG3C51    NG3N1     5   105.000000   573.208000   0.00000000         0.00
  CG2RC0   CG3C51    OG301     5   109.246000   304.009440   0.00000000         0.00
  CG2RC0   CG3C51    OG311     5   115.500000   502.080000   0.00000000         0.00
  CG2RC0   CG3C51   OG3C51     5   105.400000   627.600000   0.00000000         0.00
  CG2RC0   CG3C51     HGA1     5   110.100000   401.664000   0.00000000         0.00
   CG301   CG3C51   CG3C51     5   115.000000   485.344000   0.25610000      6694.40
   CG301   CG3C51   CG3C52     5   115.000000   485.344000   0.25610000      6694.40
   CG301   CG3C51   NG2R53     5   112.918300   654.712320   0.00000000         0.00
   CG301   CG3C51   NG3C51     5    93.460000   380.158240   0.00000000         0.00
   CG301   CG3C51     HGA1     5   110.100000   289.532800   0.21790000     18853.10
   CG302   CG3C51   CG3C51     5   105.975100   172.882880   0.00000000         0.00
   CG302   CG3C51   CG3C54     5    91.551500   533.208960   0.00000000         0.00
   CG302   CG3C51     HGA1     5   110.629600   294.972000   0.00000000         0.00
   CG311   CG3C51   CG3C51     5   115.000000   485.344000   0.25610000      6694.40
   CG311   CG3C51   CG3C52     5   115.000000   485.344000   0.25610000      6694.40
   CG311   CG3C51   CG3C53     5   109.033900   335.975200   0.00000000         0.00
   CG311   CG3C51   CG3C54     5   112.318500   265.432960   0.00000000         0.00
   CG311   CG3C51   CG3RC1     5   108.000000   435.136000   0.00000000         0.00
   CG311   CG3C51   NG2R53     5   112.894300   496.138720   0.00000000         0.00
   CG311   CG3C51   NG3C51     5    93.460000   380.158240   0.00000000         0.00
   CG311   CG3C51   OG3C51     5   101.952700   559.819200   0.00000000         0.00
   CG311   CG3C51     HGA1     5   110.100000   289.532800   0.21790000     18853.10
   CG314   CG3C51   CG3C52     5   109.830000   489.276960   0.25387000      6368.05
   CG314   CG3C51   OG3C51     5   103.880000   376.560000   0.00000000         0.00
   CG314   CG3C51     HGA1     5   109.630000   289.532800   0.21519000      4451.78
   CG321   CG3C51   CG3C50     5   115.000000   485.344000   0.25610000      6694.40
   CG321   CG3C51   CG3C51     5   115.000000   485.344000   0.25610000      6694.40
   CG321   CG3C51   CG3C52     5   115.000000   485.344000   0.25610000      6694.40
   CG321   CG3C51   CG3RC1     5   103.700000   446.432800   0.25610000      6694.40
   CG321   CG3C51   OG3C51     5   111.500000   376.560000   0.00000000         0.00
   CG321   CG3C51     HGA1     5   110.100000   289.532800   0.21790000     18853.10
   CG322   CG3C51   CG3C41     5   107.642000   393.881760   0.00000000         0.00
   CG322   CG3C51   CG3C52     5   110.308800   391.371360   0.00000000         0.00
   CG322   CG3C51     HGA1     5   111.525200   325.598880   0.00000000         0.00
   CG324   CG3C51   CG3C50     5   109.830000   489.276960   0.25387000      6368.05
   CG324   CG3C51   CG3C52     5   109.830000   489.276960   0.25387000      6368.05
   CG324   CG3C51   NG3C51     5    94.760700   474.549280   0.00000000         0.00
   CG324   CG3C51     HGA1     5   109.630000   289.532800   0.21519000      4451.78
   CG331   CG3C51   CG3C50     5   115.000000   485.344000   0.25610000      6694.40
   CG331   CG3C51   CG3C51     5   115.000000   485.344000   0.25610000      6694.40
   CG331   CG3C51   CG3C52     5   115.000000   485.344000   0.25610000      6694.40
   CG331   CG3C51   CG3C53     5   111.154900   460.742080   0.00000000         0.00
   CG331   CG3C51   CG3C54     5   113.165100   615.717440   0.00000000         0.00
   CG331   CG3C51   CG3RC1     5   108.500000   446.432800   0.25610000      6694.40
   CG331   CG3C51   NG2R50     5   115.093100   477.896480   0.00000000         0.00
   CG331   CG3C51   NG2R53     5   111.620500   394.216480   0.00000000         0.00
   CG331   CG3C51   NG2R57     5   110.253100   597.558880   0.00000000         0.00
   CG331   CG3C51    NG2S0     5   111.208200   483.670400   0.00000000         0.00
   CG331   CG3C51   NG3C51     5   111.644700   364.510080   0.00000000         0.00
   CG331   CG3C51   OG3C51     5   111.500000   376.560000   0.00000000         0.00
   CG331   CG3C51    SG311     5   113.395600   456.725440   0.00000000         0.00
   CG331   CG3C51    SG3O2     5   107.374000   407.940000   0.00000000         0.00
   CG331   CG3C51     HGA1     5   110.100000   289.532800   0.21790000     18853.10
  CG3C31   CG3C51   CG3C51     5   115.000000   485.344000   0.25610000      6694.40
  CG3C31   CG3C51   OG3C51     5   111.500000   376.560000   0.00000000         0.00
  CG3C31   CG3C51     HGA1     5   110.100000   289.532800   0.21790000     18853.10
  CG3C41   CG3C51   CG3C52     5   115.000000   485.344000   0.25610000      6694.40
  CG3C41   CG3C51     HGA1     5   110.100000   289.532800   0.21790000     18853.10
  CG3C50   CG3C51   CG3C51     5   109.500000   485.344000   0.25610000      9338.69
  CG3C50   CG3C51   CG3C52     5   109.500000   485.344000   0.25610000      9338.69
  CG3C50   CG3C51   CG3C54     5   111.000000   446.432800   0.25610000      6694.40
  CG3C50   CG3C51   NG3C51     5   107.600000   702.912000   0.00000000         0.00
  CG3C50   CG3C51    OG311     5   110.100000   633.457600   0.00000000         0.00
  CG3C50   CG3C51   OG3C51     5   111.100000   376.560000   0.00000000         0.00
  CG3C50   CG3C51     HGA1     5   111.400000   292.880000   0.21790000     18853.10
  CG3C51   CG3C51   CG3C51     5   109.500000   485.344000   0.25610000      9338.69
  CG3C51   CG3C51   CG3C52     5   109.500000   485.344000   0.25610000      9338.69
  CG3C51   CG3C51   CG3C53     5   111.000000   446.432800   0.25610000      6694.40
  CG3C51   CG3C51   CG3C54     5   111.000000   446.432800   0.25610000      6694.40
  CG3C51   CG3C51   CG3RC1     5   103.700000   446.432800   0.25610000      6694.40
  CG3C51   CG3C51   NG2R51     5   111.000000   920.480000   0.00000000         0.00
  CG3C51   CG3C51   NG2R53     5   104.500000   753.120000   0.00000000         0.00
  CG3C51   CG3C51   NG2R61     5   111.000000   920.480000   0.00000000         0.00
  CG3C51   CG3C51    NG2S3     5   110.000000   365.681600   0.00000000         0.00
  CG3C51   CG3C51    NG301     5   111.000000   920.480000   0.00000000         0.00
  CG3C51   CG3C51    NG311     5   111.000000   920.480000   0.00000000         0.00
  CG3C51   CG3C51    NG321     5   107.500000   566.513600   0.00000000         0.00
  CG3C51   CG3C51   NG3C51     5   107.600000   702.912000   0.00000000         0.00
  CG3C51   CG3C51    OG301     5   106.500000   485.344000   0.25610000      6694.40
  CG3C51   CG3C51    OG303     5   109.700000   962.320000   0.00000000         0.00
  CG3C51   CG3C51    OG311     5   110.100000   633.457600   0.00000000         0.00
  CG3C51   CG3C51   OG3C51     5   111.100000   376.560000   0.00000000         0.00
  CG3C51   CG3C51    SG311     5   104.170000   871.192480   0.00000000         0.00
  CG3C51   CG3C51     FGA1     5   112.000000   368.192000   0.23690000     25104.00
  CG3C51   CG3C51     HGA1     5   111.400000   292.880000   0.21790000     18853.10
  CG3C51   CG3C51     HGA6     5   111.400000   292.880000   0.21790000     18853.10
  CG3C52   CG3C51   CG3C52     5   109.500000   485.344000   0.25610000      9338.69
  CG3C52   CG3C51   CG3C53     5   111.000000   446.432800   0.25610000      6694.40
  CG3C52   CG3C51   CG3C54     5   111.000000   446.432800   0.25610000      6694.40
  CG3C52   CG3C51   CG3RC1     5   103.700000   446.432800   0.25610000      6694.40
  CG3C52   CG3C51   NG2R50     5   107.100000   334.720000   0.00000000         0.00
  CG3C52   CG3C51   NG2R51     5   113.700000  1171.520000   0.00000000         0.00
  CG3C52   CG3C51   NG2R53     5   103.639700   911.191520   0.00000000         0.00
  CG3C52   CG3C51   NG2R61     5   113.700000   920.480000   0.00000000         0.00
  CG3C52   CG3C51    NG2S0     5   110.800000   585.760000   0.00000000         0.00
  CG3C52   CG3C51    NG2S1     5   110.800000   585.760000   0.00000000         0.00
  CG3C52   CG3C51    NG2S3     5   110.000000   365.681600   0.00000000         0.00
  CG3C52   CG3C51    NG301     5   111.000000   920.480000   0.00000000         0.00
  CG3C52   CG3C51    NG311     5   113.000000   920.480000   0.00000000         0.00
  CG3C52   CG3C51    NG321     5   107.500000   566.513600   0.00000000         0.00
  CG3C52   CG3C51   NG3C51     5   107.600000   702.912000   0.00000000         0.00
  CG3C52   CG3C51    NG3N1     5   113.000000   920.480000   0.00000000         0.00
  CG3C52   CG3C51    OG301     5   106.500000   485.344000   0.25610000      6694.40
  CG3C52   CG3C51    OG303     5   109.700000   962.320000   0.00000000         0.00
  CG3C52   CG3C51    OG311     5   110.000000   633.457600   0.00000000         0.00
  CG3C52   CG3C51   OG3C51     5   111.100000   376.560000   0.00000000         0.00
  CG3C52   CG3C51    SG311     5   107.690000   589.023520   0.00000000         0.00
  CG3C52   CG3C51    SG3O1     5   104.869800   206.271200   0.00000000         0.00
  CG3C52   CG3C51    SG3O2     5   104.299000   549.861280   0.00000000         0.00
  CG3C52   CG3C51     FGA1     5   112.000000   368.192000   0.23690000     25104.00
  CG3C52   CG3C51     HGA1     5   111.400000   292.880000   0.21790000     18853.10
  CG3C52   CG3C51     HGA6     5   111.400000   292.880000   0.21790000     18853.10
  CG3C53   CG3C51   CG3C54     5   112.203800   582.245440   0.00000000         0.00
  CG3C53   CG3C51   NG2R51     5   103.815700   422.165600   0.00000000         0.00
  CG3C53   CG3C51    NG2S0     5   113.794000   657.055360   0.00000000         0.00
  CG3C53   CG3C51    NG301     5    95.308700   266.186080   0.00000000         0.00
  CG3C53   CG3C51    NG321     5    99.646900   478.063840   0.00000000         0.00
  CG3C53   CG3C51    OG301     5   110.100000   633.457600   0.00000000         0.00
  CG3C53   CG3C51    OG311     5   110.100000   633.457600   0.00000000         0.00
  CG3C53   CG3C51   OG3C51     5   113.236900   733.873600   0.00000000         0.00
  CG3C53   CG3C51     HGA1     5   110.100000   288.696000   0.21790000     18853.10
  CG3C54   CG3C51   NG2R51     5   111.556900   653.373440   0.00000000         0.00
  CG3C54   CG3C51    NG301     5   104.965300   287.022400   0.00000000         0.00
  CG3C54   CG3C51    NG321     5   114.868800   125.185280   0.00000000         0.00
  CG3C54   CG3C51   NG3C51     5   110.400000   728.016000   0.00000000         0.00
  CG3C54   CG3C51    OG311     5   110.100000   633.457600   0.00000000         0.00
  CG3C54   CG3C51     FGA1     5   106.530400   410.952480   0.00000000         0.00
  CG3C54   CG3C51     HGA1     5   110.100000   288.696000   0.21790000     18853.10
  CG3C54   CG3C51     HGA6     5   110.100000   288.696000   0.21790000     18853.10
  CG3RC1   CG3C51   CG3RC1     5   103.700000   446.432800   0.25610000      6694.40
  CG3RC1   CG3C51   NG2R51     5   108.000000   920.480000   0.00000000         0.00
  CG3RC1   CG3C51   NG2R61     5   108.000000   920.480000   0.00000000         0.00
  CG3RC1   CG3C51    NG301     5   111.000000   920.480000   0.00000000         0.00
  CG3RC1   CG3C51    NG311     5   111.000000   920.480000   0.00000000         0.00
  CG3RC1   CG3C51    NG321     5   107.500000   566.513600   0.00000000         0.00
  CG3RC1   CG3C51   NG3C51     5   107.600000   702.912000   0.00000000         0.00
  CG3RC1   CG3C51    OG303     5   110.100000   633.457600   0.00000000         0.00
  CG3RC1   CG3C51    OG311     5   110.100000   633.457600   0.00000000         0.00
  CG3RC1   CG3C51   OG3C51     5   106.219700   527.100320   0.00000000         0.00
  CG3RC1   CG3C51     HGA1     5   110.100000   288.696000   0.21790000     18853.10
  NG2R50   CG3C51   OG3C51     5   115.436000   764.751520   0.00000000         0.00
  NG2R50   CG3C51     HGA1     5   109.800000   368.192000   0.00000000         0.00
  NG2R51   CG3C51   OG3C51     5   108.000000  1171.520000   0.00000000         0.00
  NG2R51   CG3C51     HGA1     5   111.000000   359.824000   0.00000000         0.00
  NG2R53   CG3C51   NG3C51     5    97.806600  1119.889440   0.00000000         0.00
  NG2R53   CG3C51     HGA1     5   107.312300   468.859040   0.00000000         0.00
  NG2R57   CG3C51     HGA1     5   111.000000   359.824000   0.00000000         0.00
  NG2R61   CG3C51   OG3C51     5   108.000000   920.480000   0.00000000         0.00
  NG2R61   CG3C51     HGA1     5   111.000000   359.824000   0.00000000         0.00
   NG2S0   CG3C51     HGA1     5   112.000000   401.664000   0.00000000         0.00
   NG2S1   CG3C51     HGA1     5   112.000000   401.664000   0.00000000         0.00
   NG2S3   CG3C51     HGA1     5   110.000000   401.664000   0.00000000         0.00
   NG301   CG3C51   OG3C51     5   112.000000   920.480000   0.00000000         0.00
   NG301   CG3C51     HGA1     5   111.000000   359.824000   0.00000000         0.00
   NG311   CG3C51     HGA1     5   106.000000   359.824000   0.00000000         0.00
   NG321   CG3C51     HGA1     5   109.500000   271.123200   0.21400000     41840.00
  NG3C51   CG3C51   OG3C51     5   109.176000   812.616480   0.00000000         0.00
  NG3C51   CG3C51    SG311     5   112.510000   633.457600   0.00000000         0.00
  NG3C51   CG3C51     HGA1     5   109.000000   451.872000   0.00000000         0.00
   NG3N1   CG3C51     HGA1     5   106.000000   359.824000   0.00000000         0.00
   OG301   CG3C51   OG3C51     5   112.000000   836.800000   0.00000000         0.00
   OG301   CG3C51     HGA1     5   108.500000   384.091200   0.00000000         0.00
   OG303   CG3C51     HGA1     5   109.500000   502.080000   0.00000000         0.00
   OG311   CG3C51   OG3C51     5   114.552100   675.548640   0.00000000         0.00
   OG311   CG3C51    SG311     5   115.007600   731.112160   0.00000000         0.00
   OG311   CG3C51     HGA1     5   108.890000   384.091200   0.00000000         0.00
  OG3C51   CG3C51   OG3C51     5   108.100000   711.280000   0.00000000         0.00
  OG3C51   CG3C51    SG311     5   114.840000   865.083840   0.00000000         0.00
  OG3C51   CG3C51     HGA1     5   107.300000   585.760000   0.00000000         0.00
   SG311   CG3C51     HGA1     5   107.950000   358.485120   0.00000000         0.00
   SG3O1   CG3C51     HGA1     5   101.168900   239.659520   0.00000000         0.00
   SG3O2   CG3C51     HGA1     5   104.456300   294.386240   0.00000000         0.00
    FGA1   CG3C51     HGA6     5   108.890000   481.160000   0.19970000      4184.00
  CG251O   CG3C52   CG3C52     5   102.328200   610.110880   0.00000000         0.00
  CG251O   CG3C52     HGA2     5   111.454400   339.657120   0.00000000         0.00
  CG252O   CG3C52   CG3C52     5   102.328200   610.110880   0.00000000         0.00
  CG252O   CG3C52     HGA2     5   111.454400   339.657120   0.00000000         0.00
  CG25C1   CG3C52   CG2R53     5   108.000000   376.560000   0.00000000         0.00
  CG25C1   CG3C52   CG2RC0     5   107.300000   334.720000   0.00000000         0.00
  CG25C1   CG3C52   CG3C52     5   106.000000   435.136000   0.00000000         0.00
  CG25C1   CG3C52     HGA2     5   112.600000   435.136000   0.00000000         0.00
  CG25C2   CG3C52   CG2R53     5   108.000000   376.560000   0.00000000         0.00
  CG25C2   CG3C52   CG2RC0     5   107.300000   334.720000   0.00000000         0.00
  CG25C2   CG3C52   CG3C52     5   106.000000   435.136000   0.00000000         0.00
  CG25C2   CG3C52     HGA2     5   112.600000   435.136000   0.00000000         0.00
   CG2D1   CG3C52   CG3C51     5   107.457100   633.290240   0.00000000         0.00
   CG2D1   CG3C52   CG3C52     5   109.114300   752.115840   0.00000000         0.00
   CG2D1   CG3C52     HGA2     5   107.835400   306.938240   0.00000000         0.00
   CG2O5   CG3C52   CG2R51     5   106.410000   530.614880   0.00000000         0.00
   CG2O5   CG3C52   CG2RC0     5   106.410000   530.614880   0.00000000         0.00
   CG2O5   CG3C52   CG3C51     5   112.300000   435.136000   0.00000000         0.00
   CG2O5   CG3C52   CG3C52     5   112.300000   435.136000   0.00000000         0.00
   CG2O5   CG3C52   CG3RC1     5   112.300000   435.136000   0.00000000         0.00
   CG2O5   CG3C52   NG3C51     5   113.340000   606.680000   0.00000000         0.00
   CG2O5   CG3C52     HGA2     5   112.000000   418.400000   0.00000000         0.00
  CG2R51   CG3C52   CG2R51     5   107.600000   635.968000   0.00000000         0.00
  CG2R51   CG3C52   CG2R52     5   106.000000   702.912000   0.00000000         0.00
  CG2R51   CG3C52   CG2R53     5   108.000000   376.560000   0.00000000         0.00
  CG2R51   CG3C52   CG2RC0     5   107.300000   334.720000   0.00000000         0.00
  CG2R51   CG3C52   CG3C50     5    93.211400   805.420000   0.00000000         0.00
  CG2R51   CG3C52   CG3C51     5   106.000000   435.136000   0.00000000         0.00
  CG2R51   CG3C52   CG3C52     5   106.000000   435.136000   0.00000000         0.00
  CG2R51   CG3C52   CG3C54     5   103.300000   435.136000   0.00000000         0.00
  CG2R51   CG3C52   NG2R50     5   111.600000   878.640000   0.00000000         0.00
  CG2R51   CG3C52   NG2R53     5   108.348400   553.626880   0.00000000         0.00
  CG2R51   CG3C52    NG2S0     5   104.590000   573.208000   0.00000000         0.00
  CG2R51   CG3C52   NG3C51     5   105.100000   585.760000   0.00000000         0.00
  CG2R51   CG3C52   OG3C51     5   102.400000   627.600000   0.00000000         0.00
  CG2R51   CG3C52    SG311     5   116.370000   385.681120   0.00000000         0.00
  CG2R51   CG3C52    SG3O2     5    96.307500   530.614880   0.00000000         0.00
  CG2R51   CG3C52    SG3O3     5   103.529600   597.307840   0.00000000         0.00
  CG2R51   CG3C52     HGA2     5   112.600000   435.136000   0.00000000         0.00
  CG2R52   CG3C52   CG2RC0     5   105.000000   585.760000   0.00000000         0.00
  CG2R52   CG3C52   CG3C50     5    99.000000   669.440000   0.00000000         0.00
  CG2R52   CG3C52   CG3C52     5    99.000000   669.440000   0.00000000         0.00
  CG2R52   CG3C52   NG3C51     5   105.100000   585.760000   0.00000000         0.00
  CG2R52   CG3C52     HGA2     5   112.200000   485.344000   0.00000000         0.00
  CG2R53   CG3C52   CG2RC0     5   108.000000   376.560000   0.00000000         0.00
  CG2R53   CG3C52   CG3C50     5   106.500000   585.760000   0.00000000         0.00
  CG2R53   CG3C52   CG3C51     5   106.500000   585.760000   0.00000000         0.00
  CG2R53   CG3C52   CG3C52     5   106.500000   585.760000   0.00000000         0.00
  CG2R53   CG3C52   CG3C53     5   103.300000   435.136000   0.00000000         0.00
  CG2R53   CG3C52   CG3RC1     5   106.500000   585.760000   0.00000000         0.00
  CG2R53   CG3C52   NG2R53     5   103.870000   603.667520   0.00000000         0.00
  CG2R53   CG3C52   NG3C51     5   105.100000   585.760000   0.00000000         0.00
  CG2R53   CG3C52    SG311     5   106.000000   331.623840   0.00000000         0.00
  CG2R53   CG3C52    SG3O3     5   103.723400   492.875200   0.00000000         0.00
  CG2R53   CG3C52     HGA2     5   111.000000   485.344000   0.00000000         0.00
  CG2R57   CG3C52   CG2RC0     5   107.300000   334.720000   0.00000000         0.00
  CG2R57   CG3C52     HGA2     5   112.600000   435.136000   0.00000000         0.00
  CG2RC0   CG3C52   CG2RC0     5    95.000000   334.720000   0.00000000         0.00
  CG2RC0   CG3C52   CG3C50     5    95.911700   441.160960   0.00000000         0.00
  CG2RC0   CG3C52   CG3C51     5   108.200000   543.920000   0.00000000         0.00
  CG2RC0   CG3C52   CG3C52     5   108.200000   543.920000   0.00000000         0.00
  CG2RC0   CG3C52   CG3C53     5   103.300000   435.136000   0.00000000         0.00
  CG2RC0   CG3C52   CG3RC1     5   108.200000   543.920000   0.00000000         0.00
  CG2RC0   CG3C52   NG2R57     5   100.351800   733.789920   0.00000000         0.00
  CG2RC0   CG3C52   NG3C51     5   105.100000   585.760000   0.00000000         0.00
  CG2RC0   CG3C52   OG3C51     5   105.400000   627.600000   0.00000000         0.00
  CG2RC0   CG3C52     HGA2     5   114.000000   317.984000   0.00000000         0.00
  CG3C31   CG3C52   CG3C54     5   102.744800   620.068800   0.00000000         0.00
  CG3C31   CG3C52     HGA2     5   111.993700   376.727360   0.00000000         0.00
  CG3C41   CG3C52   CG3C52     5   115.193600   473.963520   0.00000000         0.00
  CG3C41   CG3C52   NG2R53     5   105.745400   729.271200   0.00000000         0.00
  CG3C41   CG3C52     HGA2     5   110.976200   330.954400   0.00000000         0.00
  CG3C50   CG3C52   CG3C50     5   109.500000   485.344000   0.25610000      9338.69
  CG3C50   CG3C52   CG3C51     5   109.500000   485.344000   0.25610000      9338.69
  CG3C50   CG3C52   CG3C52     5   109.500000   485.344000   0.25610000      9338.69
  CG3C50   CG3C52   CG3C54     5   108.500000   585.760000   0.00000000         0.00
  CG3C50   CG3C52   CG3RC1     5   105.500000   669.440000   0.25610000      6694.40
  CG3C50   CG3C52   NG2R50     5   107.100000   334.720000   0.00000000         0.00
  CG3C50   CG3C52   NG2R51     5   111.000000   920.480000   0.00000000         0.00
  CG3C50   CG3C52   NG2R53     5   104.500000   753.120000   0.00000000         0.00
  CG3C50   CG3C52    NG2S0     5   110.500000   585.760000   0.00000000         0.00
  CG3C50   CG3C52   NG3C51     5   107.600000   702.912000   0.00000000         0.00
  CG3C50   CG3C52   OG3C51     5   111.100000   376.560000   0.00000000         0.00
  CG3C50   CG3C52    SG311     5   106.290000   904.078720   0.00000000         0.00
  CG3C50   CG3C52     HGA2     5   111.400000   292.880000   0.21790000     18853.10
  CG3C51   CG3C52   CG3C51     5   109.500000   485.344000   0.25610000      9338.69
  CG3C51   CG3C52   CG3C52     5   109.500000   485.344000   0.25610000      9338.69
  CG3C51   CG3C52   CG3C53     5   108.500000   585.760000   0.00000000         0.00
  CG3C51   CG3C52   CG3C54     5   108.500000   585.760000   0.00000000         0.00
  CG3C51   CG3C52   CG3RC1     5   105.500000   669.440000   0.25610000      6694.40
  CG3C51   CG3C52   NG2R51     5   111.000000   920.480000   0.00000000         0.00
  CG3C51   CG3C52   NG2R53     5   104.500000   753.120000   0.00000000         0.00
  CG3C51   CG3C52   NG2R57     5   111.000000   920.480000   0.00000000         0.00
  CG3C51   CG3C52    NG2S0     5   110.500000   585.760000   0.00000000         0.00
  CG3C51   CG3C52   NG3C51     5   107.600000   702.912000   0.00000000         0.00
  CG3C51   CG3C52   OG3C51     5   111.100000   376.560000   0.00000000         0.00
  CG3C51   CG3C52    SG311     5   106.290000   904.078720   0.00000000         0.00
  CG3C51   CG3C52    SG3O2     5   103.701900   499.067520   0.00000000         0.00
  CG3C51   CG3C52     HGA2     5   111.400000   292.880000   0.21790000     18853.10
  CG3C52   CG3C52   CG3C52     5   109.500000   485.344000   0.25610000      9338.69
  CG3C52   CG3C52   CG3C53     5   108.500000   585.760000   0.00000000         0.00
  CG3C52   CG3C52   CG3C54     5   108.500000   585.760000   0.00000000         0.00
  CG3C52   CG3C52   CG3RC1     5   111.000000   446.432800   0.25610000      6694.40
  CG3C52   CG3C52   NG2R50     5   107.100000   334.720000   0.00000000         0.00
  CG3C52   CG3C52   NG2R51     5   109.947100   824.917440   0.00000000         0.00
  CG3C52   CG3C52   NG2R53     5   104.500000   753.120000   0.00000000         0.00
  CG3C52   CG3C52   NG2R57     5   113.700000  1171.520000   0.00000000         0.00
  CG3C52   CG3C52   NG2R61     5   110.500000   585.760000   0.00000000         0.00
  CG3C52   CG3C52    NG2S0     5   110.500000   585.760000   0.00000000         0.00
  CG3C52   CG3C52   NG3C51     5   107.600000   702.912000   0.00000000         0.00
  CG3C52   CG3C52   OG3C51     5   111.100000   376.560000   0.00000000         0.00
  CG3C52   CG3C52    SG311     5   106.290000   904.078720   0.00000000         0.00
  CG3C52   CG3C52    SG3O2     5   105.543700   518.230240   0.00000000         0.00
  CG3C52   CG3C52     HGA2     5   111.400000   292.880000   0.21790000     18853.10
  CG3C53   CG3C52   CG3C54     5   107.396200   607.935200   0.00000000         0.00
  CG3C53   CG3C52   NG2R53     5   108.088200   606.680000   0.00000000         0.00
  CG3C53   CG3C52   NG3C51     5   110.400000   728.016000   0.00000000         0.00
  CG3C53   CG3C52   OG3C51     5   105.525700   718.309120   0.00000000         0.00
  CG3C53   CG3C52     HGA2     5   110.100000   279.742240   0.21790000     18853.10
  CG3C54   CG3C52   NG3C51     5   110.400000   728.016000   0.00000000         0.00
  CG3C54   CG3C52    SG311     5   111.805200   634.378080   0.00000000         0.00
  CG3C54   CG3C52     HGA2     5   110.100000   221.752000   0.21790000     18853.10
  CG3RC1   CG3C52   CG3RC1     5   105.300000   485.344000   0.00000000         0.00
  CG3RC1   CG3C52   NG2R53     5   104.500000   753.120000   0.00000000         0.00
  CG3RC1   CG3C52    NG2S0     5   110.500000   585.760000   0.00000000         0.00
  CG3RC1   CG3C52   NG3C51     5   107.600000   702.912000   0.00000000         0.00
  CG3RC1   CG3C52   OG3C51     5   111.004500   397.145280   0.00000000         0.00
  CG3RC1   CG3C52    SG311     5   106.290000   904.078720   0.00000000         0.00
  CG3RC1   CG3C52     HGA2     5   110.100000   288.696000   0.21790000     18853.10
  NG2R50   CG3C52     HGA2     5   109.800000   368.192000   0.00000000         0.00
  NG2R51   CG3C52   NG3C51     5   110.250900   719.982720   0.00000000         0.00
  NG2R51   CG3C52     HGA2     5   105.802200   408.191040   0.00000000         0.00
  NG2R53   CG3C52    SG311     5   104.545300   914.873440   0.00000000         0.00
  NG2R53   CG3C52    SG3O3     5   100.675800   425.931200   0.00000000         0.00
  NG2R53   CG3C52     HGA2     5   111.000000   493.712000   0.00000000         0.00
  NG2R57   CG3C52     HGA2     5   111.000000   359.824000   0.00000000         0.00
  NG2R61   CG3C52     HGA2     5   108.000000   401.664000   0.00000000         0.00
   NG2S0   CG3C52    SG311     5   106.640000   467.436480   0.00000000         0.00
   NG2S0   CG3C52     HGA2     5   108.000000   401.664000   0.00000000         0.00
  NG3C51   CG3C52   NG3C51     5   109.844800   314.302080   0.00000000         0.00
  NG3C51   CG3C52    SG311     5   112.510000   633.457600   0.00000000         0.00
  NG3C51   CG3C52     HGA2     5   109.000000   451.872000   0.00000000         0.00
  OG3C51   CG3C52   OG3C51     5   108.100000   711.280000   0.00000000         0.00
  OG3C51   CG3C52     HGA2     5   107.300000   585.760000   0.00000000         0.00
   SG311   CG3C52     HGA2     5   113.260000   384.593280   0.00000000         0.00
   SG3O2   CG3C52     HGA2     5   105.478200   314.051040   0.00000000         0.00
   SG3O3   CG3C52     HGA2     5   103.443700   285.432480   0.00000000         0.00
    HGA2   CG3C52     HGA2     5   106.800000   322.168000   0.18020000      4518.72
   CG2O1   CG3C53   CG3C52     5   112.300000   435.136000   0.00000000         0.00
   CG2O1   CG3C53    NG3P2     5   106.000000   418.400000   0.00000000         0.00
   CG2O1   CG3C53     HGA1     5   112.000000   418.400000   0.00000000         0.00
   CG2O3   CG3C53   CG3C52     5   112.300000   435.136000   0.00000000         0.00
   CG2O3   CG3C53   CG3RC1     5   112.300000   435.136000   0.00000000         0.00
   CG2O3   CG3C53    NG3P2     5   106.000000   418.400000   0.00000000         0.00
   CG2O3   CG3C53     HGA1     5   112.000000   418.400000   0.00000000         0.00
  CG2R51   CG3C53   CG3C51     5   106.000000   878.640000   0.00000000         0.00
  CG2R51   CG3C53   CG3C52     5   106.000000   878.640000   0.00000000         0.00
  CG2R51   CG3C53    NG3P2     5   109.500000   644.336000   0.00000000         0.00
  CG2R51   CG3C53    NG3P3     5   109.500000   644.336000   0.00000000         0.00
  CG2R51   CG3C53     HGA1     5   114.800000   384.928000   0.00000000         0.00
  CG2R53   CG3C53   CG3C52     5   106.500000   585.760000   0.00000000         0.00
  CG2R53   CG3C53    NG3P3     5   109.500000   644.336000   0.00000000         0.00
  CG2R53   CG3C53     HGA1     5   111.000000   485.344000   0.00000000         0.00
  CG2R57   CG3C53   CG3C52     5   106.000000   878.640000   0.00000000         0.00
  CG2R57   CG3C53    NG3P2     5   109.500000   644.336000   0.00000000         0.00
  CG2R57   CG3C53     HGA1     5   114.800000   384.928000   0.00000000         0.00
  CG2R61   CG3C53   CG3C52     5   115.450100   227.776960   0.00000000         0.00
  CG2R61   CG3C53   CG3C54     5   117.103400   441.412000   0.00000000         0.00
  CG2R61   CG3C53   NG2R52     5   113.630700   567.685120   0.00000000         0.00
  CG2R61   CG3C53    NG3P2     5   111.167600   503.669920   0.00000000         0.00
  CG2R61   CG3C53     HGA1     5   113.841700   334.050560   0.00000000         0.00
  CG2R64   CG3C53   CG3C52     5   111.287100   360.158720   0.00000000         0.00
  CG2R64   CG3C53    NG3P2     5    96.077500   568.438240   0.00000000         0.00
  CG2R64   CG3C53     HGA1     5   112.933400   322.000640   0.00000000         0.00
  CG2RC0   CG3C53   CG2RC0     5    95.000000   334.720000   0.00000000         0.00
  CG2RC0   CG3C53   CG3C52     5   106.000000   878.640000   0.00000000         0.00
  CG2RC0   CG3C53   NG2R61     5   105.910000   573.040640   0.00000000         0.00
  CG2RC0   CG3C53    NG3P3     5   109.500000   644.336000   0.00000000         0.00
  CG2RC0   CG3C53     HGA1     5   114.800000   384.928000   0.00000000         0.00
   CG301   CG3C53   CG3C52     5   115.000000   485.344000   0.25610000      6694.40
   CG301   CG3C53    NG3P2     5   111.253100   686.343360   0.00000000         0.00
   CG301   CG3C53     HGA1     5   110.100000   289.532800   0.21790000     18853.10
   CG311   CG3C53   CG3C52     5   115.000000   485.344000   0.25610000      6694.40
   CG311   CG3C53    NG3P2     5   111.212100   518.397600   0.00000000         0.00
   CG311   CG3C53     HGA1     5   110.100000   289.532800   0.21790000     18853.10
   CG321   CG3C53   CG3C51     5   115.000000   485.344000   0.25610000      6694.40
   CG321   CG3C53    NG3P2     5   112.054000   465.093440   0.00000000         0.00
   CG321   CG3C53     HGA1     5   110.100000   289.532800   0.21790000     18853.10
   CG331   CG3C53   CG3C51     5   115.000000   485.344000   0.25610000      6694.40
   CG331   CG3C53   CG3C52     5   115.000000   485.344000   0.25610000      6694.40
   CG331   CG3C53   CG3RC1     5   108.500000   446.432800   0.25610000      6694.40
   CG331   CG3C53   NG2R50     5   111.443200   395.639040   0.00000000         0.00
   CG331   CG3C53   NG2R52     5   109.586400   520.489600   0.00000000         0.00
   CG331   CG3C53   NG3C51     5    93.460000   380.158240   0.00000000         0.00
   CG331   CG3C53    NG3P0     5   122.002400   403.337600   0.00000000         0.00
   CG331   CG3C53    NG3P2     5   108.643300   539.568640   0.00000000         0.00
   CG331   CG3C53    SG311     5   109.024300   400.157760   0.00000000         0.00
   CG331   CG3C53     HGA1     5   110.100000   289.532800   0.21790000     18853.10
   CG331   CG3C53     HGP5     5   111.187500   323.423200   0.00000000         0.00
  CG3C50   CG3C53   CG3C52     5   103.700000   446.432800   0.25610000      6694.40
  CG3C50   CG3C53    NG3P3     5   108.500000   585.760000   0.00000000         0.00
  CG3C50   CG3C53     HGA1     5   110.100000   288.696000   0.21790000     18853.10
  CG3C51   CG3C53   CG3C52     5   109.500000   485.344000   0.25610000      9338.69
  CG3C51   CG3C53   CG3C54     5   111.000000   446.432800   0.25610000      6694.40
  CG3C51   CG3C53   CG3RC1     5   103.700000   446.432800   0.25610000      6694.40
  CG3C51   CG3C53   NG2R52     5   103.489200   221.919360   0.00000000         0.00
  CG3C51   CG3C53   NG2R61     5   111.000000   920.480000   0.00000000         0.00
  CG3C51   CG3C53    NG3P1     5   108.500000   585.760000   0.00000000         0.00
  CG3C51   CG3C53    NG3P2     5   108.500000   585.760000   0.00000000         0.00
  CG3C51   CG3C53    NG3P3     5   108.500000   585.760000   0.00000000         0.00
  CG3C51   CG3C53   OG3C51     5   106.250000  1004.160000   0.00000000         0.00
  CG3C51   CG3C53     HGA1     5   110.100000   288.696000   0.21790000     18853.10
  CG3C52   CG3C53   CG3C52     5   119.364400   520.405920   0.00000000         0.00
  CG3C52   CG3C53   CG3C54     5   111.000000   446.432800   0.25610000      6694.40
  CG3C52   CG3C53   CG3RC1     5   103.700000   446.432800   0.25610000      6694.40
  CG3C52   CG3C53   NG2R52     5   107.525500   363.756960   0.00000000         0.00
  CG3C52   CG3C53    NG3P1     5   115.052300   455.470240   0.00000000         0.00
  CG3C52   CG3C53    NG3P2     5   108.500000   585.760000   0.00000000         0.00
  CG3C52   CG3C53    NG3P3     5   108.500000   585.760000   0.00000000         0.00
  CG3C52   CG3C53     HGA1     5   118.000000   292.880000   0.00000000         0.00
  CG3C54   CG3C53   NG2R52     5   106.000000   569.024000   0.00000000         0.00
  CG3C54   CG3C53    NG3P3     5   111.381100   445.010240   0.00000000         0.00
  CG3C54   CG3C53     HGA1     5   110.100000   288.696000   0.21790000     18853.10
  CG3RC1   CG3C53   CG3RC1     5   103.700000   446.432800   0.25610000      6694.40
  CG3RC1   CG3C53    NG3P2     5   108.500000   585.760000   0.00000000         0.00
  CG3RC1   CG3C53    NG3P3     5   108.500000   585.760000   0.00000000         0.00
  CG3RC1   CG3C53     HGA1     5   110.100000   288.696000   0.21790000     18853.10
  NG2R50   CG3C53    NG3P0     5   113.268900  1504.064320   0.00000000         0.00
  NG2R50   CG3C53     HGP5     5   109.686600   356.644160   0.00000000         0.00
  NG2R52   CG3C53   NG3C51     5    99.835600   899.141600   0.00000000         0.00
  NG2R52   CG3C53     HGA1     5   107.000000   451.872000   0.00000000         0.00
  NG2R61   CG3C53   OG3C51     5   108.000000   920.480000   0.00000000         0.00
  NG2R61   CG3C53     HGA1     5   111.000000   359.824000   0.00000000         0.00
  NG3C51   CG3C53     HGA1     5   109.000000   451.872000   0.00000000         0.00
   NG3P0   CG3C53     HGP5     5   105.997400   424.927040   0.00000000         0.00
   NG3P1   CG3C53     HGA1     5   108.469900   400.074080   0.00000000         0.00
   NG3P2   CG3C53    SG311     5   100.134700   506.849760   0.00000000         0.00
   NG3P2   CG3C53     HGA1     5   107.500000   430.952000   0.00000000         0.00
   NG3P3   CG3C53     HGA1     5   107.500000   430.952000   0.00000000         0.00
  OG3C51   CG3C53     HGA1     5   107.240000   378.233600   0.00000000         0.00
   SG311   CG3C53     HGA1     5   107.950000   358.485120   0.00000000         0.00
  CG2R51   CG3C54   NG2R52     5   103.100000  1154.784000   0.00000000         0.00
  CG2R51   CG3C54    NG3P2     5   103.000000   518.816000   0.00000000         0.00
  CG2R51   CG3C54     HGA2     5   114.800000   343.088000   0.00000000         0.00
  CG2R52   CG3C54   NG2R52     5   103.100000  1154.784000   0.00000000         0.00
  CG2R52   CG3C54     HGA2     5   112.200000   485.344000   0.00000000         0.00
  CG2RC0   CG3C54    NG3P2     5   103.000000   518.816000   0.00000000         0.00
  CG2RC0   CG3C54     HGA2     5   114.800000   343.088000   0.00000000         0.00
  CG3C31   CG3C54    NG3P2     5   102.644000   524.171520   0.00000000         0.00
  CG3C31   CG3C54     HGA2     5   119.532300   316.059360   0.00000000         0.00
  CG3C50   CG3C54   NG2R52     5   101.519400  1079.220960   0.00000000         0.00
  CG3C50   CG3C54    NG3P2     5   108.500000   585.760000   0.00000000         0.00
  CG3C50   CG3C54     HGA2     5   111.400000   292.880000   0.21790000     18853.10
  CG3C51   CG3C54    NG2P1     5   102.416800   480.490560   0.00000000         0.00
  CG3C51   CG3C54    NG3P2     5   108.500000   585.760000   0.00000000         0.00
  CG3C51   CG3C54     HGA2     5   110.100000   221.752000   0.21790000     18853.10
  CG3C52   CG3C54    NG2P1     5   107.562900   581.743360   0.00000000         0.00
  CG3C52   CG3C54   NG2R52     5   109.570700   543.083200   0.00000000         0.00
  CG3C52   CG3C54   NG2RC0     5   113.700000  1171.520000   0.00000000         0.00
  CG3C52   CG3C54    NG3P0     5   108.500000   585.760000   0.00000000         0.00
  CG3C52   CG3C54    NG3P1     5   108.500000   585.760000   0.00000000         0.00
  CG3C52   CG3C54    NG3P2     5   108.500000   585.760000   0.00000000         0.00
  CG3C52   CG3C54     HGA2     5   110.100000   221.752000   0.21790000     18853.10
  CG3C52   CG3C54     HGP5     5   116.721200   333.046400   0.00000000         0.00
  CG3C53   CG3C54   NG2R52     5   106.000000   569.024000   0.00000000         0.00
  CG3C53   CG3C54    NG3P2     5   107.084700   553.710560   0.00000000         0.00
  CG3C53   CG3C54     HGA2     5   110.100000   221.752000   0.21790000     18853.10
  CG3C54   CG3C54   NG2R52     5   106.000000   569.024000   0.00000000         0.00
  CG3C54   CG3C54   NG2RC0     5   111.712500  1904.305760   0.00000000         0.00
  CG3C54   CG3C54     HGA2     5   110.100000   221.752000   0.21790000     18853.10
  CG3RC1   CG3C54    NG3P2     5   108.500000   585.760000   0.00000000         0.00
  CG3RC1   CG3C54     HGA2     5   110.100000   288.696000   0.21790000     18853.10
   NG2P1   CG3C54     HGA2     5   107.986300   407.019520   0.00000000         0.00
  NG2R52   CG3C54     HGA2     5   107.000000   451.872000   0.00000000         0.00
  NG2RC0   CG3C54     HGA2     5   111.000000   359.824000   0.00000000         0.00
  NG3C51   CG3C54    NG3P2     5   119.000000   719.648000   0.00000000         0.00
  NG3C51   CG3C54     HGA2     5   114.600000   443.504000   0.00000000         0.00
   NG3P0   CG3C54     HGP5     5   105.693200   425.345440   0.00000000         0.00
   NG3P1   CG3C54     HGA2     5   109.150000   430.952000   0.00000000         0.00
   NG3P2   CG3C54     HGA2     5   109.150000   430.952000   0.00000000         0.00
    HGA2   CG3C54     HGA2     5   109.000000   297.064000   0.18020000      4518.72
    HGP5   CG3C54     HGP5     5   112.099500   313.883680   0.00000000         0.00
  CG25C1   CG3RC1    CG321     5   115.943400   338.318240   0.00000000         0.00
  CG25C1   CG3RC1   CG3RC1     5   110.721500   553.041120   0.00000000         0.00
  CG25C1   CG3RC1     HGA1     5   110.183400   282.671040   0.00000000         0.00
  CG25C2   CG3RC1    CG321     5   115.943400   338.318240   0.00000000         0.00
  CG25C2   CG3RC1   CG3RC1     5   110.721500   553.041120   0.00000000         0.00
  CG25C2   CG3RC1     HGA1     5   110.183400   282.671040   0.00000000         0.00
   CG2D1   CG3RC1   CG3C31     5   102.398300   289.030720   0.00000000         0.00
   CG2D1   CG3RC1   CG3C52     5   109.953800   349.196640   0.00000000         0.00
   CG2D1   CG3RC1   CG3RC1     5   124.391600   352.543840   0.00000000         0.00
   CG2D1   CG3RC1    NG3P1     5   103.252800   536.388800   0.00000000         0.00
   CG2D1   CG3RC1     HGA1     5   104.043900   332.544320   0.00000000         0.00
  CG2DC1   CG3RC1   CG3RC1     5   111.505300   351.288640   0.00000000         0.00
  CG2DC1   CG3RC1   OG3C51     5   106.650100   499.485920   0.00000000         0.00
  CG2DC1   CG3RC1     HGA1     5   108.529200   345.012640   0.00000000         0.00
  CG2DC2   CG3RC1   CG3RC1     5   111.505300   351.288640   0.00000000         0.00
  CG2DC2   CG3RC1   OG3C51     5   106.650100   499.485920   0.00000000         0.00
  CG2DC2   CG3RC1     HGA1     5   108.529200   345.012640   0.00000000         0.00
   CG2O1   CG3RC1   CG3C31     5   112.502700   346.184160   0.00000000         0.00
   CG2O1   CG3RC1   CG3C52     5   104.022900   398.065760   0.00000000         0.00
   CG2O1   CG3RC1   CG3RC1     5   113.274300   538.899200   0.00000000         0.00
   CG2O1   CG3RC1    NG2S0     5   112.267900   453.294560   0.00000000         0.00
   CG2O1   CG3RC1     HGA1     5   107.534200   379.572480   0.00000000         0.00
   CG2O2   CG3RC1   CG3C52     5   107.734000   302.335840   0.00000000         0.00
   CG2O2   CG3RC1    NG2S1     5   105.284800   691.531520   0.00000000         0.00
   CG2O3   CG3RC1   CG3C31     5   109.373500   169.117280   0.00000000         0.00
   CG2O3   CG3RC1   CG3RC1     5   118.030200     9.121120   0.00000000         0.00
   CG2O3   CG3RC1   OG3R60     5   105.281500   373.547520   0.00000000         0.00
   CG2O4   CG3RC1   CG3C54     5   120.604200   425.680160   0.00000000         0.00
   CG2O4   CG3RC1   CG3RC1     5    77.744900   569.526080   0.00000000         0.00
   CG2O4   CG3RC1     HGA1     5   103.791500   259.910080   0.00000000         0.00
   CG2O5   CG3RC1    CG321     5    97.070300   290.369600   0.00000000         0.00
   CG2O5   CG3RC1    CG331     5   101.423700   343.339040   0.00000000         0.00
   CG2O5   CG3RC1   CG3C31     5   107.730600   540.740160   0.00000000         0.00
   CG2O5   CG3RC1   CG3C52     5   110.308300   430.449920   0.00000000         0.00
   CG2O5   CG3RC1   CG3RC1     5   111.311000   320.410720   0.00000000         0.00
   CG2O5   CG3RC1   OG3C31     5   110.219000   295.641440   0.00000000         0.00
   CG2O5   CG3RC1     HGA1     5   104.884700   296.310880   0.00000000         0.00
  CG2R51   CG3RC1    CG321     5   107.786400   254.219840   0.00000000         0.00
  CG2R51   CG3RC1   CG3C52     5   106.666500   291.541120   0.00000000         0.00
  CG2R51   CG3RC1    SG3O3     5   104.102000   635.968000   0.00000000         0.00
  CG2R51   CG3RC1     HGA1     5   110.082400   285.265120   0.00000000         0.00
  CG2R52   CG3RC1    CG321     5    99.791800   359.740320   0.00000000         0.00
  CG2R52   CG3RC1   CG3C51     5   100.354700   379.237760   0.00000000         0.00
  CG2R52   CG3RC1     HGA1     5   112.590500   343.171680   0.00000000         0.00
  CG2R53   CG3RC1   CG3C41     5   120.717600    85.269920   0.00000000         0.00
  CG2R53   CG3RC1   CG3C53     5   110.133400   529.192320   0.00000000         0.00
  CG2R53   CG3RC1   CG3C54     5    88.611500   284.512000   0.00000000         0.00
  CG2R53   CG3RC1   CG3RC1     5    92.756500   695.129760   0.00000000         0.00
  CG2R53   CG3RC1   NG2R53     5   108.964100   881.150400   0.00000000         0.00
  CG2R53   CG3RC1     HGA1     5   105.385100   331.623840   0.00000000         0.00
  CG2R57   CG3RC1   CG3C51     5   105.440600   212.965600   0.00000000         0.00
  CG2R57   CG3RC1   CG3C52     5   113.856600   400.325120   0.00000000         0.00
  CG2R57   CG3RC1    NG2S0     5   111.043500   615.382720   0.00000000         0.00
  CG2R57   CG3RC1     HGA1     5   110.010200   347.606720   0.00000000         0.00
  CG2R61   CG3RC1   CG3C31     5   125.400000   289.030720   0.00000000         0.00
  CG2R61   CG3RC1   CG3RC1     5    99.198400   352.711200   0.00000000         0.00
  CG2R61   CG3RC1   NG2R52     5   126.885100   384.342240   0.00000000         0.00
  CG2R61   CG3RC1     HGA1     5   117.483200   287.189760   0.00000000         0.00
  CG2RC0   CG3RC1   CG2RC0     5   100.396600   480.574240   0.00000000         0.00
  CG2RC0   CG3RC1    CG311     5   105.227100   527.518720   0.00000000         0.00
  CG2RC0   CG3RC1    CG321     5   112.089100   352.041760   0.00000000         0.00
  CG2RC0   CG3RC1    CG324     5   112.028800   476.641280   0.00000000         0.00
  CG2RC0   CG3RC1   CG3C31     5   103.498900   496.055040   0.00000000         0.00
  CG2RC0   CG3RC1   CG3C41     5   113.392900   483.754080   0.00000000         0.00
  CG2RC0   CG3RC1   CG3C51     5   124.584400   225.936000   0.00000000         0.00
  CG2RC0   CG3RC1   CG3C52     5    99.202200   707.263360   0.00000000         0.00
  CG2RC0   CG3RC1   CG3RC1     5   107.625000   288.696000   0.00000000         0.00
  CG2RC0   CG3RC1    OG311     5   115.500000   502.080000   0.00000000         0.00
  CG2RC0   CG3RC1    SG3O3     5    94.266300   325.013120   0.00000000         0.00
  CG2RC0   CG3RC1     HGA1     5   111.484600   342.083840   0.00000000         0.00
   CG301   CG3RC1   CG3C52     5   111.000000   446.432800   0.25610000      6694.40
   CG301   CG3RC1   CG3C54     5    92.802900   405.596960   0.00000000         0.00
   CG301   CG3RC1   CG3RC1     5   108.000000   446.432800   0.25610000      6694.40
   CG301   CG3RC1   OG3C51     5   107.560700   444.089760   0.00000000         0.00
   CG301   CG3RC1     HGA1     5   110.100000   288.696000   0.21790000     18853.10
   CG302   CG3RC1    CG321     5   109.427100   295.892480   0.00000000         0.00
   CG302   CG3RC1   CG3C52     5   116.989300   272.294720   0.00000000         0.00
   CG302   CG3RC1   CG3RC1     5   110.909600   268.696480   0.00000000         0.00
   CG311   CG3RC1    CG331     5   113.500000   488.272800   0.25610000      9338.69
   CG311   CG3RC1   CG3C31     5   111.000000   446.432800   0.25610000      6694.40
   CG311   CG3RC1   CG3C41     5   128.069300   159.912480   0.00000000         0.00
   CG311   CG3RC1   CG3C51     5   113.500000   488.272800   0.25610000      9338.69
   CG311   CG3RC1   CG3C52     5   111.000000   446.432800   0.25610000      6694.40
   CG311   CG3RC1   CG3RC1     5   108.000000   446.432800   0.25610000      6694.40
   CG311   CG3RC1    NG2S0     5   108.641900   363.171200   0.00000000         0.00
   CG311   CG3RC1    NG3P2     5   105.870800   567.852480   0.00000000         0.00
   CG311   CG3RC1    OG311     5   116.783200   622.244480   0.00000000         0.00
   CG311   CG3RC1   OG3C31     5   119.448200   350.451840   0.00000000         0.00
   CG311   CG3RC1   OG3C51     5    98.376200   445.847040   0.00000000         0.00
   CG311   CG3RC1     HGA1     5   110.100000   288.696000   0.21790000     18853.10
   CG314   CG3RC1   CG3C52     5   117.697200   363.840640   0.00000000         0.00
   CG314   CG3RC1   CG3RC1     5   106.302200   361.413920   0.00000000         0.00
   CG314   CG3RC1     HGA1     5   108.238400   336.309920   0.00000000         0.00
   CG321   CG3RC1    CG321     5   113.500000   488.272800   0.25610000      9338.69
   CG321   CG3RC1    CG331     5   113.500000   488.272800   0.25610000      9338.69
   CG321   CG3RC1   CG3C31     5   111.000000   446.432800   0.25610000      6694.40
   CG321   CG3RC1   CG3C41     5   111.160200   221.249920   0.00000000         0.00
   CG321   CG3RC1   CG3C50     5   111.000000   446.432800   0.25610000      6694.40
   CG321   CG3RC1   CG3C51     5   111.000000   446.432800   0.25610000      6694.40
   CG321   CG3RC1   CG3C52     5   113.500000   488.272800   0.25610000      9338.69
   CG321   CG3RC1   CG3C54     5   117.594500   512.121600   0.00000000         0.00
   CG321   CG3RC1   CG3RC1     5   111.000000   446.432800   0.25610000      6694.40
   CG321   CG3RC1   NG2R43     5   112.732500   617.976800   0.00000000         0.00
   CG321   CG3RC1    NG2S0     5   109.218700   796.131520   0.00000000         0.00
   CG321   CG3RC1    NG321     5   108.345400   347.606720   0.00000000         0.00
   CG321   CG3RC1    NG3P1     5   108.195100   571.032320   0.00000000         0.00
   CG321   CG3RC1    NG3P2     5   108.004900   685.339200   0.00000000         0.00
   CG321   CG3RC1   OG3C31     5   118.828000   430.366240   0.00000000         0.00
   CG321   CG3RC1   OG3C51     5   108.900100   557.392480   0.00000000         0.00
   CG321   CG3RC1    SG311     5   107.506800   410.199360   0.00000000         0.00
   CG321   CG3RC1    SG3O2     5   110.763100   505.427200   0.00000000         0.00
   CG321   CG3RC1     HGA1     5   110.100000   288.696000   0.21790000     18853.10
   CG324   CG3RC1   CG3C31     5   121.153200   294.804640   0.00000000         0.00
   CG324   CG3RC1   CG3C41     5   121.931900   307.021920   0.00000000         0.00
   CG324   CG3RC1   CG3C52     5   107.311600   384.844320   0.00000000         0.00
   CG324   CG3RC1   CG3C53     5   107.186100   478.816960   0.00000000         0.00
   CG324   CG3RC1   CG3RC1     5   120.240500   479.653760   0.00000000         0.00
   CG324   CG3RC1   OG3C51     5   101.228900   508.858080   0.00000000         0.00
   CG324   CG3RC1     HGA1     5   113.095700   406.266400   0.00000000         0.00
   CG331   CG3RC1   CG3C31     5   111.000000   446.432800   0.25610000      6694.40
   CG331   CG3RC1   CG3C51     5   113.500000   488.272800   0.25610000      9338.69
   CG331   CG3RC1   CG3C52     5   113.500000   488.272800   0.25610000      9338.69
   CG331   CG3RC1   CG3RC1     5   113.500000   488.272800   0.25610000      9338.69
   CG331   CG3RC1   NG2R53     5   114.945800   452.876160   0.00000000         0.00
   CG331   CG3RC1    NG2S0     5   111.910800   563.166400   0.00000000         0.00
   CG331   CG3RC1    NG311     5   116.063500   547.601920   0.00000000         0.00
   CG331   CG3RC1   OG3C31     5   122.083500   501.577920   0.00000000         0.00
   CG331   CG3RC1   OG3C51     5   113.735400   632.369760   0.00000000         0.00
   CG331   CG3RC1   OG3C61     5   103.017600   578.647200   0.00000000         0.00
   CG331   CG3RC1    SG311     5   114.707300   465.511840   0.00000000         0.00
  CG3C31   CG3RC1   CG3C51     5   111.000000   446.432800   0.25610000      6694.40
  CG3C31   CG3RC1   CG3C52     5   111.000000   446.432800   0.25610000      6694.40
  CG3C31   CG3RC1   CG3RC1     5    62.500000   446.432800   0.00000000         0.00
  CG3C31   CG3RC1   NG2R51     5   113.700000   585.760000   0.00000000         0.00
  CG3C31   CG3RC1   NG2R61     5   113.700000   585.760000   0.00000000         0.00
  CG3C31   CG3RC1    NG321     5   105.303400   280.830080   0.00000000         0.00
  CG3C31   CG3RC1    NG3P3     5   121.573800   296.478240   0.00000000         0.00
  CG3C31   CG3RC1   OG3R60     5   124.090000   214.806560   0.00000000         0.00
  CG3C31   CG3RC1     HGA1     5   110.100000   288.696000   0.21790000     18853.10
  CG3C41   CG3RC1   CG3C41     5    72.271500   920.563680   0.00000000         0.00
  CG3C41   CG3RC1   CG3C52     5   108.593800   520.154880   0.00000000         0.00
  CG3C41   CG3RC1   CG3C53     5   111.273300   210.371520   0.00000000         0.00
  CG3C41   CG3RC1   CG3RC1     5    86.903900   508.104960   0.00000000         0.00
  CG3C41   CG3RC1   NG2R43     5    95.881000   599.316160   0.00000000         0.00
  CG3C41   CG3RC1   NG2R53     5   113.102900   710.777920   0.00000000         0.00
  CG3C41   CG3RC1    SG311     5   103.939200   523.669440   0.00000000         0.00
  CG3C41   CG3RC1     HGA1     5   118.099700   328.527680   0.00000000         0.00
  CG3C50   CG3RC1   CG3C52     5   109.000000   585.760000   0.00000000         0.00
  CG3C50   CG3RC1   CG3RC1     5   108.000000   446.432800   0.25610000      6694.40
  CG3C50   CG3RC1     HGA1     5   110.100000   288.696000   0.21790000     18853.10
  CG3C51   CG3RC1   CG3C51     5   109.000000   585.760000   0.00000000         0.00
  CG3C51   CG3RC1   CG3C52     5   109.000000   585.760000   0.00000000         0.00
  CG3C51   CG3RC1   CG3RC1     5   108.000000   446.432800   0.25610000      6694.40
  CG3C51   CG3RC1    NG2S0     5   113.700000   585.760000   0.00000000         0.00
  CG3C51   CG3RC1   OG3C31     5   112.000000   794.960000   0.00000000         0.00
  CG3C51   CG3RC1   OG3C51     5   101.121900   372.292320   0.00000000         0.00
  CG3C51   CG3RC1     HGA1     5   110.100000   288.696000   0.21790000     18853.10
  CG3C52   CG3RC1   CG3C52     5   109.400000   468.608000   0.00000000         0.00
  CG3C52   CG3RC1   CG3C53     5   103.636400   674.879200   0.00000000         0.00
  CG3C52   CG3RC1   CG3RC1     5   111.000000   446.432800   0.25610000      6694.40
  CG3C52   CG3RC1   NG2R50     5   123.801500   384.509600   0.00000000         0.00
  CG3C52   CG3RC1   NG2R51     5   113.700000   585.760000   0.00000000         0.00
  CG3C52   CG3RC1   NG2R53     5   113.700000   585.760000   0.00000000         0.00
  CG3C52   CG3RC1   NG2R61     5   113.700000   585.760000   0.00000000         0.00
  CG3C52   CG3RC1    NG2S0     5   113.700000   585.760000   0.00000000         0.00
  CG3C52   CG3RC1    NG2S1     5   113.700000   585.760000   0.00000000         0.00
  CG3C52   CG3RC1    NG301     5   108.771300   471.118400   0.00000000         0.00
  CG3C52   CG3RC1    NG311     5   118.037200   515.970880   0.00000000         0.00
  CG3C52   CG3RC1   NG3C51     5   118.391900   424.843360   0.00000000         0.00
  CG3C52   CG3RC1    NG3P0     5   104.571400   729.187520   0.00000000         0.00
  CG3C52   CG3RC1    NG3P1     5   101.804300   685.004480   0.00000000         0.00
  CG3C52   CG3RC1    NG3P2     5   108.052400   649.942560   0.00000000         0.00
  CG3C52   CG3RC1    NG3P3     5   115.755000   260.663200   0.00000000         0.00
  CG3C52   CG3RC1    OG311     5   113.200000   494.214080   0.00000000         0.00
  CG3C52   CG3RC1   OG3C31     5   112.000000   794.960000   0.00000000         0.00
  CG3C52   CG3RC1   OG3C51     5    96.058700   338.150880   0.00000000         0.00
  CG3C52   CG3RC1   OG3C61     5   105.263300   494.214080   0.00000000         0.00
  CG3C52   CG3RC1    SG311     5   110.384400   442.499840   0.00000000         0.00
  CG3C52   CG3RC1    SG3O2     5    98.507300   509.694880   0.00000000         0.00
  CG3C52   CG3RC1    SG3O3     5   110.978400   299.156000   0.00000000         0.00
  CG3C52   CG3RC1     HGA1     5   110.100000   288.696000   0.21790000     18853.10
  CG3C52   CG3RC1     HGP5     5   110.986800   328.025600   0.00000000         0.00
  CG3C53   CG3RC1   CG3RC1     5   107.000000   861.904000   0.23830000     37656.00
  CG3C53   CG3RC1   OG3C31     5   105.800000   778.224000   0.00000000         0.00
  CG3C53   CG3RC1   OG3C51     5   108.151800   503.418880   0.00000000         0.00
  CG3C53   CG3RC1    SG311     5   106.011600   420.492000   0.00000000         0.00
  CG3C53   CG3RC1     HGA1     5   105.700000   146.440000   0.20100000     36819.20
  CG3C54   CG3RC1   CG3RC1     5   107.000000   861.904000   0.23830000     37656.00
  CG3C54   CG3RC1     HGA1     5   105.700000   146.440000   0.20100000     36819.20
  CG3RC1   CG3RC1   CG3RC1     5    83.080200   641.323520   0.00000000         0.00
  CG3RC1   CG3RC1   NG2R50     5   101.526800   567.015680   0.00000000         0.00
  CG3RC1   CG3RC1   NG2R51     5   113.700000   585.760000   0.00000000         0.00
  CG3RC1   CG3RC1   NG2R52     5   100.164600   717.137600   0.00000000         0.00
  CG3RC1   CG3RC1   NG2R53     5   113.700000   585.760000   0.00000000         0.00
  CG3RC1   CG3RC1   NG2R61     5   113.700000   585.760000   0.00000000         0.00
  CG3RC1   CG3RC1    NG2S0     5   113.700000   585.760000   0.00000000         0.00
  CG3RC1   CG3RC1    NG301     5   106.480700   331.623840   0.00000000         0.00
  CG3RC1   CG3RC1    NG321     5   104.554000   281.415840   0.00000000         0.00
  CG3RC1   CG3RC1   NG3C51     5    99.207000   603.416480   0.00000000         0.00
  CG3RC1   CG3RC1    NG3N1     5   106.193600   375.137440   0.00000000         0.00
  CG3RC1   CG3RC1    NG3P3     5   107.246600   239.575840   0.00000000         0.00
  CG3RC1   CG3RC1    OG311     5   104.635800   529.359680   0.00000000         0.00
  CG3RC1   CG3RC1   OG3C31     5    59.600000   451.872000   0.14250000      6694.40
  CG3RC1   CG3RC1   OG3C51     5   109.000000   418.400000   0.00000000         0.00
  CG3RC1   CG3RC1   OG3C61     5   106.169600   711.698400   0.00000000         0.00
  CG3RC1   CG3RC1   OG3R60     5   111.151800   242.672000   0.00000000         0.00
  CG3RC1   CG3RC1    SG311     5   107.923300   426.433280   0.00000000         0.00
  CG3RC1   CG3RC1    SG3O2     5    96.235100   379.823520   0.00000000         0.00
  CG3RC1   CG3RC1     HGA1     5   110.100000   288.696000   0.21790000     18853.10
  NG2R43   CG3RC1    SG311     5   113.414800   550.279680   0.00000000         0.00
  NG2R43   CG3RC1     HGA1     5   111.928700   342.753280   0.00000000         0.00
  NG2R50   CG3RC1     HGA1     5   109.000800   365.430560   0.00000000         0.00
  NG2R52   CG3RC1     HGA1     5   110.251300   344.594240   0.00000000         0.00
  NG2R53   CG3RC1   NG2R53     5   117.000000   585.760000   0.00000000         0.00
  NG2R53   CG3RC1    NG311     5   112.440600   585.508960   0.00000000         0.00
  NG2R53   CG3RC1    NG3N1     5   111.821400   514.632000   0.00000000         0.00
  NG2R53   CG3RC1    SG311     5   110.753500   515.887200   0.00000000         0.00
  NG2R53   CG3RC1     HGA1     5   111.000000   493.712000   0.00000000         0.00
   NG2S0   CG3RC1    SG311     5   110.493900   581.073920   0.00000000         0.00
   NG2S0   CG3RC1     HGA1     5   106.267700   347.606720   0.00000000         0.00
   NG301   CG3RC1     HGA1     5   110.565700   345.849440   0.00000000         0.00
  NG3C51   CG3RC1     HGA1     5   108.654100   353.045920   0.00000000         0.00
   NG3N1   CG3RC1     HGA1     5   114.561900   321.749600   0.00000000         0.00
   NG3P0   CG3RC1     HGP5     5   104.062800   436.642240   0.00000000         0.00
   NG3P1   CG3RC1     HGA1     5   103.354700   500.741120   0.00000000         0.00
   NG3P2   CG3RC1     HGA1     5   104.481400   456.307040   0.00000000         0.00
   OG311   CG3RC1   OG3C51     5   108.267300   721.907360   0.00000000         0.00
  OG3C31   CG3RC1     HGA1     5   112.500000   610.864000   0.00000000         0.00
  OG3C51   CG3RC1   OG3C51     5   105.000000   585.760000   0.00000000         0.00
  OG3C51   CG3RC1     HGA1     5   106.000000   460.240000   0.00000000         0.00
  OG3C61   CG3RC1     HGA1     5   109.278000   362.501760   0.00000000         0.00
   SG311   CG3RC1     HGA1     5   111.963200   314.971520   0.00000000         0.00
   SG3O2   CG3RC1     HGA1     5   106.546600   333.130080   0.00000000         0.00
   SG3O3   CG3RC1     HGA1     5   107.223700   381.078720   0.00000000         0.00
   CG321    NG1T1    NG1T1     5   112.750000   317.565600   0.00000000         0.00
   NG1T1    NG1T1    NG1T1     5   171.860000   459.235840   0.00000000         0.00
  CG25C1    NG2D1   CG2R64     5   116.785000   375.304800   0.00000000         0.00
  CG25C1    NG2D1    OG301     5   105.463300   645.758560   0.00000000         0.00
  CG25C2    NG2D1   CG2R64     5   116.785000   375.304800   0.00000000         0.00
  CG25C2    NG2D1    OG301     5   105.463300   645.758560   0.00000000         0.00
   CG2D1    NG2D1    CG321     5   111.000000   623.416000   0.00000000         0.00
   CG2D1    NG2D1    CG331     5   111.000000   560.656000   0.00000000         0.00
   CG2D1    NG2D1    NG2S0     5   115.000000   836.800000   0.00000000         0.00
   CG2D1    NG2D1    NG2S1     5   115.000000   836.800000   0.00000000         0.00
   CG2D1    NG2D1    NG3N1     5   102.193400   478.816960   0.00000000         0.00
   CG2D1    NG2D1   OG3R60     5   104.252800   858.807840   0.00000000         0.00
  CG2D1O    NG2D1   CG2DC1     5   119.300000   583.249600   0.00000000         0.00
  CG2D1O    NG2D1    CG2N2     5   107.000000   836.800000   0.00000000         0.00
  CG2D1O    NG2D1    CG2O6     5   119.680000   369.698240   0.00000000         0.00
  CG2D1O    NG2D1   CG2R61     5    84.555800   106.859360   0.00000000         0.00
  CG2D1O    NG2D1   CG2R64     5    94.854600   492.038400   0.00000000         0.00
  CG2D1O    NG2D1    CG301     5   111.000000   623.416000   0.00000000         0.00
  CG2D1O    NG2D1    CG321     5   111.000000   623.416000   0.00000000         0.00
  CG2D1O    NG2D1    CG331     5   111.000000   560.656000   0.00000000         0.00
  CG2D1O    NG2D1    NG2D1     5   103.638700   583.249600   0.00000000         0.00
  CG2D2O    NG2D1   CG2DC2     5   119.300000   583.249600   0.00000000         0.00
  CG2D2O    NG2D1    CG2N2     5   107.000000   836.800000   0.00000000         0.00
  CG2D2O    NG2D1    CG2O6     5   119.680000   369.698240   0.00000000         0.00
  CG2D2O    NG2D1   CG2R61     5    84.555800   106.859360   0.00000000         0.00
  CG2D2O    NG2D1   CG2R64     5    94.854600   492.038400   0.00000000         0.00
  CG2D2O    NG2D1    CG301     5   111.000000   623.416000   0.00000000         0.00
  CG2D2O    NG2D1    CG321     5   111.000000   623.416000   0.00000000         0.00
  CG2D2O    NG2D1    CG331     5   111.000000   560.656000   0.00000000         0.00
  CG2D2O    NG2D1    NG2D1     5   103.638700   583.249600   0.00000000         0.00
  CG2DC1    NG2D1    CG2N2     5   107.000000   836.800000   0.00000000         0.00
  CG2DC1    NG2D1    CG2O1     5   119.680000   369.698240   0.00000000         0.00
  CG2DC1    NG2D1    CG2O6     5   119.680000   369.698240   0.00000000         0.00
  CG2DC1    NG2D1   CG2R61     5   112.748000   204.681280   0.00000000         0.00
  CG2DC1    NG2D1   CG2R64     5   110.485500   418.651040   0.00000000         0.00
  CG2DC1    NG2D1    CG311     5   111.000000   623.416000   0.00000000         0.00
  CG2DC1    NG2D1    CG321     5   111.000000   623.416000   0.00000000         0.00
  CG2DC1    NG2D1    CG331     5   111.000000   560.656000   0.00000000         0.00
  CG2DC1    NG2D1    NG2D1     5    87.116700   336.142560   0.00000000         0.00
  CG2DC1    NG2D1    NG2P1     5   104.220300   840.649280   0.00000000         0.00
  CG2DC1    NG2D1    NG2S1     5   115.000000   836.800000   0.00000000         0.00
  CG2DC1    NG2D1     HGP1     5   107.730000   553.459520   0.00000000         0.00
  CG2DC2    NG2D1    CG2N2     5   107.000000   836.800000   0.00000000         0.00
  CG2DC2    NG2D1    CG2O1     5   119.680000   369.698240   0.00000000         0.00
  CG2DC2    NG2D1    CG2O6     5   119.680000   369.698240   0.00000000         0.00
  CG2DC2    NG2D1   CG2R61     5   112.748000   204.681280   0.00000000         0.00
  CG2DC2    NG2D1   CG2R64     5   110.485500   418.651040   0.00000000         0.00
  CG2DC2    NG2D1    CG311     5   111.000000   623.416000   0.00000000         0.00
  CG2DC2    NG2D1    CG321     5   111.000000   623.416000   0.00000000         0.00
  CG2DC2    NG2D1    CG331     5   111.000000   560.656000   0.00000000         0.00
  CG2DC2    NG2D1    NG2D1     5    87.116700   336.142560   0.00000000         0.00
  CG2DC2    NG2D1    NG2P1     5   104.220300   840.649280   0.00000000         0.00
  CG2DC2    NG2D1    NG2S1     5   115.000000   836.800000   0.00000000         0.00
  CG2DC2    NG2D1     HGP1     5   107.730000   553.459520   0.00000000         0.00
   CG2N1    NG2D1    CG2O1     5   111.624100   210.706240   0.00000000         0.00
   CG2N1    NG2D1    CG331     5   108.000000   418.400000   0.00000000         0.00
   CG2N1    NG2D1    OG301     5    99.790000   515.803520   0.00000000         0.00
   CG2N1    NG2D1     HGP1     5   113.000000   410.032000   0.00000000         0.00
   CG2N2    NG2D1    CG2O1     5   114.800000   585.760000   0.00000000         0.00
   CG2N2    NG2D1   CG2R62     5   115.182700   472.457280   0.00000000         0.00
   CG2N2    NG2D1    CG321     5   103.800000   376.560000   0.00000000         0.00
   CG2N2    NG2D1    CG324     5   105.772300   528.439200   0.00000000         0.00
   CG2N2    NG2D1   NG2R61     5   120.391200   229.115840   0.00000000         0.00
   CG2N2    NG2D1    NG3N1     5   110.451400   688.100640   0.00000000         0.00
   CG2N2    NG2D1    SG3O2     5   106.906000   216.229120   0.00000000         0.00
   CG2N2    NG2D1    SG3O3     5   119.327900  2851.730720   0.00000000         0.00
   CG2N2    NG2D1     HGP1     5   113.000000   410.032000   0.00000000         0.00
   CG2O1    NG2D1   CG2R61     5   118.020000   753.120000   0.00000000         0.00
   CG2O1    NG2D1   CG2R64     5   118.020000   753.120000   0.00000000         0.00
   CG2O1    NG2D1    CG321     5   105.800000   585.760000   0.00000000         0.00
   CG2O1    NG2D1    CG331     5   105.800000   585.760000   0.00000000         0.00
   CG2O1    NG2D1    NG2D1     5    82.576100   567.015680   0.00000000         0.00
   CG2O6    NG2D1   CG2R64     5   105.640000   314.804160   0.00000000         0.00
   CG2O7    NG2D1    CG331     5   136.000000    75.312000   0.00000000         0.00
  CG2R51    NG2D1    NG2D1     5   104.800000   669.440000   0.00000000         0.00
  CG2R53    NG2D1   CG2R71     5   108.487200   644.336000   0.00000000         0.00
  CG2R61    NG2D1    NG2D1     5   104.800000   669.440000   0.00000000         0.00
  CG2R61    NG2D1    OG2D1     5   111.078600   847.762080   0.00000000         0.00
  CG2R61    NG2D1     HGP1     5   111.000000   485.344000   0.00000000         0.00
  CG2R62    NG2D1   CG2R64     5    96.513300   680.820480   0.00000000         0.00
  CG2R64    NG2D1    CG311     5    90.062200   246.604960   0.00000000         0.00
  CG2R64    NG2D1    CG321     5   101.637000   483.586720   0.00000000         0.00
  CG2R64    NG2D1    CG331     5   103.690200   359.572960   0.00000000         0.00
  CG2R64    NG2D1    NG3N1     5    93.158200   470.281600   0.00000000         0.00
  CG2R64    NG2D1     HGP1     5   111.000000   485.344000   0.00000000         0.00
  CG2RC0    NG2D1   CG2RC0     5    85.000000   680.820480   0.00000000         0.00
   CG311    NG2D1    NG2D1     5   103.028500   885.836480   0.00000000         0.00
   CG321    NG2D1    NG2D1     5    96.910700   426.516960   0.00000000         0.00
   NG2D1    NG2D1    OG2D1     5   112.541100   990.269120   0.00000000         0.00
   NG2D1    NG2D1    OG312     5   113.334000  1179.385920   0.00000000         0.00
   OG2D1    NG2D1    SG311     5   115.330000   642.662400   0.00000000         0.00
  CG2D1O    NG2O1    OG2N1     5   107.669700   433.546080   0.00000000         0.00
  CG2D2O    NG2O1    OG2N1     5   107.669700   433.546080   0.00000000         0.00
  CG2R51    NG2O1    OG2N1     5   116.000000   543.920000   0.00000000         0.00
  CG2R53    NG2O1    OG2N1     5   116.000000   543.920000   0.00000000         0.00
  CG2R61    NG2O1    OG2N1     5   116.000000   543.920000   0.00000000         0.00
  CG2R62    NG2O1   CG2R62     5   112.856000   680.569440   0.00000000         0.00
  CG2R62    NG2O1    OG2N1     5   116.000000   543.920000   0.00000000         0.00
  CG2R64    NG2O1    OG2N1     5   116.000000   543.920000   0.00000000         0.00
   CG301    NG2O1    OG2N1     5   119.047400   507.686560   0.00000000         0.00
   CG311    NG2O1    OG2N1     5   124.891000   458.566400   0.00000000         0.00
   CG324    NG2O1    OG2N1     5   117.000000   468.608000   0.00000000         0.00
   CG334    NG2O1    OG2N1     5   120.000000   502.080000   0.00000000         0.00
  NG2R61    NG2O1    OG2N1     5   122.721000   600.069280   0.00000000         0.00
   OG2N1    NG2O1    OG2N1     5   128.000000   878.640000   0.00000000         0.00
   CG2D1    NG2P1    CG334     5   123.600000   560.656000   0.00000000         0.00
   CG2D1    NG2P1     HGP2     5   118.800000   317.984000   0.00000000         0.00
  CG2D1O    NG2P1   CG2R53     5   103.968800   745.421440   0.00000000         0.00
  CG2D1O    NG2P1     HGP2     5   118.800000   317.984000   0.00000000         0.00
  CG2D2O    NG2P1   CG2R53     5   103.968800   745.421440   0.00000000         0.00
  CG2D2O    NG2P1     HGP2     5   118.800000   317.984000   0.00000000         0.00
  CG2DC1    NG2P1    CG324     5   123.600000   560.656000   0.00000000         0.00
  CG2DC1    NG2P1    CG334     5   123.600000   560.656000   0.00000000         0.00
  CG2DC1    NG2P1     HGP2     5   118.800000   317.984000   0.00000000         0.00
  CG2DC2    NG2P1    CG324     5   123.600000   560.656000   0.00000000         0.00
  CG2DC2    NG2P1    CG334     5   123.600000   560.656000   0.00000000         0.00
  CG2DC2    NG2P1     HGP2     5   118.800000   317.984000   0.00000000         0.00
   CG2N1    NG2P1    CG2N1     5   118.316000   331.038080   0.00000000         0.00
   CG2N1    NG2P1    CG2N2     5    97.277800   355.640000   0.00000000         0.00
   CG2N1    NG2P1   CG2R61     5    98.036900   134.975840   0.00000000         0.00
   CG2N1    NG2P1    CG314     5   120.000000   521.326400   0.00000000         0.00
   CG2N1    NG2P1    CG324     5   120.000000   521.326400   0.00000000         0.00
   CG2N1    NG2P1    CG334     5   120.000000   521.326400   0.00000000         0.00
   CG2N1    NG2P1    NG2D1     5   109.587700   528.020800   0.00000000         0.00
   CG2N1    NG2P1    OG301     5   101.880000   520.071200   0.00000000         0.00
   CG2N1    NG2P1     HGP2     5   120.000000   410.032000   0.00000000         0.00
   CG2N2    NG2P1    CG301     5   137.826900   182.255040   0.00000000         0.00
   CG2N2    NG2P1    CG324     5   120.000000   521.326400   0.00000000         0.00
   CG2N2    NG2P1    CG334     5   120.000000   521.326400   0.00000000         0.00
   CG2N2    NG2P1    OG311     5   101.880000   520.071200   0.00000000         0.00
   CG2N2    NG2P1    SG311     5   112.454900   282.671040   0.00000000         0.00
   CG2N2    NG2P1     HGP2     5   120.000000   334.720000   0.00000000         0.00
  CG2R53    NG2P1     HGP2     5   120.000000   393.296000   0.00000000         0.00
  CG2R61    NG2P1   CG2R64     5   121.400000   395.806400   0.00000000         0.00
  CG2R61    NG2P1    CG324     5   120.000000   443.504000   0.00000000         0.00
  CG2R61    NG2P1    CG334     5   120.000000   443.504000   0.00000000         0.00
  CG2R61    NG2P1     HGP2     5   120.000000   393.296000   0.00000000         0.00
  CG2R62    NG2P1    CG324     5   120.000000   443.504000   0.00000000         0.00
  CG2R62    NG2P1     HGP2     5   120.000000   393.296000   0.00000000         0.00
  CG2R63    NG2P1   CG2R64     5   126.400000   418.400000   0.00000000         0.00
  CG2R63    NG2P1    CG334     5   115.500000   502.080000   0.00000000         0.00
  CG2R63    NG2P1     HGP2     5   118.700000   317.984000   0.00000000         0.00
  CG2R64    NG2P1   CG2R64     5   125.000000   358.150400   0.26700000     65270.40
  CG2R64    NG2P1   CG2R71     5   121.400000   395.806400   0.00000000         0.00
  CG2R64    NG2P1    CG324     5   118.100000   502.080000   0.00000000         0.00
  CG2R64    NG2P1    CG334     5   118.100000   502.080000   0.00000000         0.00
  CG2R64    NG2P1   CG3C54     5   118.100000   502.080000   0.00000000         0.00
  CG2R64    NG2P1     HGP2     5   120.700000   334.720000   0.00000000         0.00
  CG2R71    NG2P1    CG334     5   120.000000   443.504000   0.00000000         0.00
  CG2R71    NG2P1     HGP2     5   120.000000   393.296000   0.00000000         0.00
   CG301    NG2P1     HGP2     5   121.653700   290.285920   0.00000000         0.00
   CG314    NG2P1    CG314     5   120.640000   349.866080   0.00000000         0.00
   CG314    NG2P1     HGP2     5   120.000000   338.067200   0.00000000         0.00
   CG324    NG2P1    CG324     5   120.640000   349.866080   0.00000000         0.00
   CG324    NG2P1    CG334     5   128.370200   252.629920   0.00000000         0.00
   CG324    NG2P1     HGP2     5   120.000000   338.067200   0.00000000         0.00
   CG334    NG2P1    CG334     5   120.640000   349.866080   0.00000000         0.00
   CG334    NG2P1     HGP2     5   120.000000   338.067200   0.00000000         0.00
  CG3C54    NG2P1   CG3C54     5   127.636500   743.329440   0.00000000         0.00
   NG2D1    NG2P1     HGP2     5   110.712300   288.612320   0.00000000         0.00
   OG301    NG2P1     HGP2     5   104.690000   336.560960   0.00000000         0.00
   OG311    NG2P1     HGP2     5   104.690000   336.560960   0.00000000         0.00
   SG311    NG2P1     HGP2     5   113.181200   285.850880   0.00000000         0.00
    HGP2    NG2P1     HGP2     5   120.000000   209.200000   0.00000000         0.00
  CG2D1O   NG2R43   CG2R53     5   122.740400   237.818560   0.00000000         0.00
  CG2D1O   NG2R43   CG3RC1     5   115.649600   225.684960   0.00000000         0.00
  CG2D2O   NG2R43   CG2R53     5   122.740400   237.818560   0.00000000         0.00
  CG2D2O   NG2R43   CG3RC1     5   115.649600   225.684960   0.00000000         0.00
  CG2R53   NG2R43   CG2R61     5   130.227500   243.508800   0.00000000         0.00
  CG2R53   NG2R43    CG321     5   121.269900   311.875360   0.00000000         0.00
  CG2R53   NG2R43    CG331     5   122.847300    18.911680   0.00000000         0.00
  CG2R53   NG2R43   CG3C41     5   111.500000   711.280000   0.00000000         0.00
  CG2R53   NG2R43   CG3RC1     5   110.528500   468.859040   0.00000000         0.00
  CG2R53   NG2R43     HGP1     5   129.700000   284.512000   0.00000000         0.00
  CG2R61   NG2R43   CG3C41     5   130.986600   251.542080   0.00000000         0.00
   CG321   NG2R43   CG3RC1     5   125.725700   217.233280   0.00000000         0.00
   CG331   NG2R43   CG3C41     5   134.024800   471.453120   0.00000000         0.00
  CG3C41   NG2R43     HGP1     5   125.300000   284.512000   0.00000000         0.00
  CG251O   NG2R50   CG2R53     5   101.000000   836.800000   0.00000000         0.00
  CG252O   NG2R50   CG2R53     5   101.000000   836.800000   0.00000000         0.00
  CG2R51   NG2R50   CG2R52     5   103.000000   485.344000   0.00000000         0.00
  CG2R51   NG2R50   CG2R53     5   103.500000  1087.840000   0.00000000         0.00
  CG2R51   NG2R50   CG2R57     5   103.000000   485.344000   0.00000000         0.00
  CG2R51   NG2R50   CG2RC0     5   103.000000   502.080000   0.00000000         0.00
  CG2R51   NG2R50   NG2R50     5   106.800000   920.480000   0.00000000         0.00
  CG2R51   NG2R50     HGP1     5   125.500000   251.040000   0.21500000     16736.00
  CG2R52   NG2R50   CG2R53     5   101.000000   836.800000   0.00000000         0.00
  CG2R52   NG2R50   CG2RC0     5   103.000000   502.080000   0.00000000         0.00
  CG2R52   NG2R50   CG3C52     5   102.900000   962.320000   0.00000000         0.00
  CG2R52   NG2R50   NG2R50     5   105.900000   920.480000   0.00000000         0.00
  CG2R52   NG2R50   NG2R51     5   103.500000  1338.880000   0.00000000         0.00
  CG2R52   NG2R50   NG2R53     5   103.500000  1338.880000   0.00000000         0.00
  CG2R52   NG2R50   NG2RC0     5   103.500000  1338.880000   0.00000000         0.00
  CG2R52   NG2R50    NG2S0     5   115.092200   569.358720   0.00000000         0.00
  CG2R52   NG2R50   NG3C51     5   105.500000  1338.880000   0.00000000         0.00
  CG2R52   NG2R50   OG2R50     5   103.300000  1255.200000   0.00000000         0.00
  CG2R52   NG2R50   OG3C51     5   106.839900   669.356320   0.00000000         0.00
  CG2R52   NG2R50   SG2R50     5   111.000000  1255.200000   0.00000000         0.00
  CG2R52   NG2R50    SG3O2     5    94.680800   210.120480   0.00000000         0.00
  CG2R53   NG2R50   CG2R53     5   101.000000   836.800000   0.00000000         0.00
  CG2R53   NG2R50   CG2R57     5   103.500000  1087.840000   0.00000000         0.00
  CG2R53   NG2R50   CG2RC0     5   103.800000  1004.160000   0.00000000         0.00
  CG2R53   NG2R50   CG2RC7     5   103.800000  1004.160000   0.00000000         0.00
  CG2R53   NG2R50   CG3C41     5   110.543200   356.811520   0.00000000         0.00
  CG2R53   NG2R50   CG3C51     5   101.900000  1338.880000   0.00000000         0.00
  CG2R53   NG2R50   CG3C52     5   101.900000  1338.880000   0.00000000         0.00
  CG2R53   NG2R50   NG2R50     5   105.900000   920.480000   0.00000000         0.00
  CG2R53   NG2R50   NG2R51     5   101.000000   836.800000   0.00000000         0.00
  CG2R53   NG2R50   NG2RC0     5   101.000000   836.800000   0.00000000         0.00
  CG2R53   NG2R50   NG3C51     5   108.456900   748.601280   0.00000000         0.00
  CG2R53   NG2R50   OG2R50     5   103.000000   418.400000   0.00000000         0.00
  CG2R53   NG2R50   SG2R50     5   111.000000  1255.200000   0.00000000         0.00
  CG2R57   NG2R50   CG2RC0     5   103.000000   502.080000   0.00000000         0.00
  CG2R57   NG2R50   NG2R50     5   106.800000   920.480000   0.00000000         0.00
  CG2R57   NG2R50   NG2R51     5   103.500000  1338.880000   0.00000000         0.00
  CG2R57   NG2R50   OG2R50     5   103.300000  1255.200000   0.00000000         0.00
  CG2RC0   NG2R50   CG2RC0     5   103.000000   502.080000   0.00000000         0.00
  CG2RC0   NG2R50   CG3C52     5   102.900000   962.320000   0.00000000         0.00
  CG2RC0   NG2R50   NG2R50     5   106.800000   920.480000   0.00000000         0.00
  CG2RC0   NG2R50   NG2R51     5   103.500000  1338.880000   0.00000000         0.00
  CG2RC0   NG2R50   OG2R50     5   103.300000  1255.200000   0.00000000         0.00
  CG3C50   NG2R50   NG2R50     5   112.216200   736.467680   0.00000000         0.00
  CG3C51   NG2R50   NG2R50     5   118.128700   697.891200   0.00000000         0.00
  CG3C52   NG2R50   NG2R50     5   111.784000   845.753760   0.00000000         0.00
  CG3C53   NG2R50   NG2R50     5   118.510100   777.554560   0.00000000         0.00
  CG3RC1   NG2R50   NG2R50     5   109.991600   754.124160   0.00000000         0.00
  NG2R50   NG2R50   NG2R50     5   108.200000  1338.880000   0.00000000         0.00
  NG2R50   NG2R50   NG2R51     5   102.200000  1338.880000   0.00000000         0.00
  NG2R50   NG2R50   NG2R52     5   101.779500  1087.756320   0.00000000         0.00
  NG2R50   NG2R50   NG2R57     5   102.200000  1338.880000   0.00000000         0.00
  NG2R50   NG2R50   NG3C51     5   115.069900  1206.247200   0.00000000         0.00
  NG2R50   NG2R50   OG2R50     5   103.000000   920.480000   0.00000000         0.00
  NG2R50   NG2R50   SG2R50     5   111.283100   736.384000   0.00000000         0.00
  NG2R50   NG2R50     HGP1     5   127.000000   251.040000   0.21400000     16736.00
  CG251O   NG2R51   CG2RC0     5   107.200000   836.800000   0.00000000         0.00
  CG251O   NG2R51    CG331     5   127.800000   585.760000   0.00000000         0.00
  CG252O   NG2R51   CG2RC0     5   107.200000   836.800000   0.00000000         0.00
  CG252O   NG2R51    CG331     5   127.800000   585.760000   0.00000000         0.00
   CG2O1   NG2R51   CG2R51     5   125.500000   251.040000   0.00000000         0.00
   CG2O1   NG2R51   CG2RC0     5   125.500000   251.040000   0.00000000         0.00
   CG2O6   NG2R51   CG2R51     5   125.500000   251.040000   0.00000000         0.00
   CG2O6   NG2R51   NG2R50     5   112.432800   399.488320   0.00000000         0.00
  CG2R51   NG2R51   CG2R51     5   109.000000   836.800000   0.00000000         0.00
  CG2R51   NG2R51   CG2R53     5   107.500000  1087.840000   0.00000000         0.00
  CG2R51   NG2R51   CG2R61     5   127.000000   334.720000   0.00000000         0.00
  CG2R51   NG2R51   CG2R62     5   127.000000   334.720000   0.00000000         0.00
  CG2R51   NG2R51   CG2R64     5   128.000000   292.880000   0.00000000         0.00
  CG2R51   NG2R51   CG2RC0     5   110.000000   711.280000   0.00000000         0.00
  CG2R51   NG2R51    CG301     5   127.100000   585.760000   0.00000000         0.00
  CG2R51   NG2R51    CG311     5   127.100000   585.760000   0.00000000         0.00
  CG2R51   NG2R51    CG321     5   127.100000   585.760000   0.00000000         0.00
  CG2R51   NG2R51    CG331     5   127.800000   585.760000   0.00000000         0.00
  CG2R51   NG2R51   CG3C51     5   126.000000  1087.840000   0.00000000         0.00
  CG2R51   NG2R51   CG3C52     5   117.025200   600.989760   0.00000000         0.00
  CG2R51   NG2R51   NG2R50     5   115.000000  1338.880000   0.00000000         0.00
  CG2R51   NG2R51   NG2R52     5    83.005200   556.388320   0.00000000         0.00
  CG2R51   NG2R51    NG3N1     5   136.698600   220.831520   0.00000000         0.00
  CG2R51   NG2R51   OG2R50     5    92.336400   783.077440   0.00000000         0.00
  CG2R51   NG2R51    OG301     5   120.630000   402.249760   0.00000000         0.00
  CG2R51   NG2R51    OG311     5   120.630000   402.249760   0.00000000         0.00
  CG2R51   NG2R51      PG2     5   117.380000   308.946560   0.00000000         0.00
  CG2R51   NG2R51     HGP1     5   125.500000   251.040000   0.21500000     16736.00
  CG2R53   NG2R51   CG2R53     5   107.500000  1087.840000   0.00000000         0.00
  CG2R53   NG2R51   CG2R57     5   107.500000  1087.840000   0.00000000         0.00
  CG2R53   NG2R51   CG2R61     5   127.000000   334.720000   0.00000000         0.00
  CG2R53   NG2R51   CG2R64     5   128.000000   292.880000   0.00000000         0.00
  CG2R53   NG2R51   CG2RC0     5   107.200000   836.800000   0.00000000         0.00
  CG2R53   NG2R51    CG301     5   127.800000   585.760000   0.00000000         0.00
  CG2R53   NG2R51    CG311     5   125.397000   278.821760   0.00000000         0.00
  CG2R53   NG2R51    CG321     5   127.800000   585.760000   0.00000000         0.00
  CG2R53   NG2R51    CG322     5   114.339000   239.492160   0.00000000         0.00
  CG2R53   NG2R51    CG331     5   127.800000   585.760000   0.00000000         0.00
  CG2R53   NG2R51   CG3C41     5   127.800000   585.760000   0.00000000         0.00
  CG2R53   NG2R51   CG3C50     5   126.300000   376.560000   0.00000000         0.00
  CG2R53   NG2R51   CG3C51     5   126.300000   376.560000   0.00000000         0.00
  CG2R53   NG2R51   CG3C52     5   111.489900   629.524640   0.00000000         0.00
  CG2R53   NG2R51   CG3RC1     5   127.600000   376.560000   0.00000000         0.00
  CG2R53   NG2R51   NG2R50     5   114.000000  1087.840000   0.00000000         0.00
  CG2R53   NG2R51   NG2R51     5   112.517900   561.492800   0.00000000         0.00
  CG2R53   NG2R51    NG3N1     5   107.744500   319.908640   0.00000000         0.00
  CG2R53   NG2R51    OG311     5   120.630000   402.249760   0.00000000         0.00
  CG2R53   NG2R51      PG2     5   134.060000   217.735360   0.00000000         0.00
  CG2R53   NG2R51   SG2R50     5   111.061600   581.157600   0.00000000         0.00
  CG2R53   NG2R51    SG311     5   136.372900   233.801920   0.00000000         0.00
  CG2R53   NG2R51     HGP1     5   127.000000   251.040000   0.21400000     16736.00
  CG2R57   NG2R51   CG2RC0     5   110.000000   711.280000   0.00000000         0.00
  CG2R57   NG2R51    CG321     5   127.100000   585.760000   0.00000000         0.00
  CG2R57   NG2R51    CG331     5   127.800000   585.760000   0.00000000         0.00
  CG2R57   NG2R51   NG2R50     5   115.000000  1338.880000   0.00000000         0.00
  CG2R57   NG2R51     HGP1     5   125.500000   251.040000   0.21500000     16736.00
  CG2R61   NG2R51   CG2RC0     5   127.000000   334.720000   0.00000000         0.00
  CG2R61   NG2R51   NG2R50     5   118.000000   334.720000   0.00000000         0.00
  CG2R64   NG2R51   CG2RC0     5   128.000000   292.880000   0.00000000         0.00
  CG2R64   NG2R51   NG2R50     5   117.000000   292.880000   0.00000000         0.00
  CG2RC0   NG2R51   CG2RC0     5   110.000000   711.280000   0.00000000         0.00
  CG2RC0   NG2R51    CG311     5   121.598700    72.717920   0.00000000         0.00
  CG2RC0   NG2R51    CG322     5   116.375200   217.986400   0.00000000         0.00
  CG2RC0   NG2R51    CG331     5   125.900000   585.760000   0.00000000         0.00
  CG2RC0   NG2R51   CG3C41     5   125.900000   585.760000   0.00000000         0.00
  CG2RC0   NG2R51   CG3C50     5   126.500000   376.560000   0.00000000         0.00
  CG2RC0   NG2R51   CG3C51     5   126.500000   376.560000   0.00000000         0.00
  CG2RC0   NG2R51   CG3C52     5   125.006000   586.262080   0.00000000         0.00
  CG2RC0   NG2R51   CG3RC1     5   126.500000   376.560000   0.00000000         0.00
  CG2RC0   NG2R51   NG2R50     5   114.500000  1589.920000   0.00000000         0.00
  CG2RC0   NG2R51   NG2R51     5   105.467300   497.059200   0.00000000         0.00
  CG2RC0   NG2R51    NG3N1     5   114.968400   312.210080   0.00000000         0.00
  CG2RC0   NG2R51    OG301     5   118.990000   405.262240   0.00000000         0.00
  CG2RC0   NG2R51     HGP1     5   126.000000   234.304000   0.00000000         0.00
   CG301   NG2R51   NG2R50     5   117.900000   585.760000   0.00000000         0.00
   CG301   NG2R51   SG2R50     5   112.370400    48.283360   0.00000000         0.00
   CG311   NG2R51   NG2R50     5   117.900000   585.760000   0.00000000         0.00
   CG321   NG2R51   NG2R50     5   117.900000   585.760000   0.00000000         0.00
   CG331   NG2R51   NG2R50     5   118.000000   334.720000   0.00000000         0.00
   CG331   NG2R51   NG2R51     5   102.521300   486.348160   0.00000000         0.00
   CG331   NG2R51   SG2R50     5   110.487200   338.318240   0.00000000         0.00
  CG3C51   NG2R51   NG2R50     5   107.604100   131.293920   0.00000000         0.00
  CG3C52   NG2R51   NG2R50     5   103.060100   350.953920   0.00000000         0.00
  NG2R50   NG2R51   NG2R50     5   121.000000   753.120000   0.00000000         0.00
  NG2R50   NG2R51    NG3N1     5   122.424700   441.160960   0.00000000         0.00
  NG2R50   NG2R51    SG311     5   127.023000   445.847040   0.00000000         0.00
  NG2R50   NG2R51     HGP1     5   119.500000   267.776000   0.00000000         0.00
  NG2R52   NG2R51     HGP1     5   108.242300   213.969760   0.00000000         0.00
  OG2R50   NG2R51     HGP1     5   101.759900   450.533120   0.00000000         0.00
   CG2N2   NG2R52   CG2R51     5   115.961600   110.876000   0.00000000         0.00
   CG2N2   NG2R52   CG2RC0     5   131.353100   324.427360   0.00000000         0.00
   CG2O1   NG2R52   CG2R53     5   134.157700   454.968160   0.00000000         0.00
   CG2O1   NG2R52   CG3C54     5   125.428500   129.536640   0.00000000         0.00
   CG2O6   NG2R52   CG2R51     5   110.459000   300.745920   0.00000000         0.00
   CG2O6   NG2R52   CG2R53     5   113.233900   267.273920   0.00000000         0.00
  CG2R51   NG2R52   CG2R53     5   108.000000  1213.360000   0.00000000         0.00
  CG2R51   NG2R52   CG2R61     5   113.856800   531.200640   0.00000000         0.00
  CG2R51   NG2R52   CG2RC0     5   108.000000   861.904000   0.00000000         0.00
  CG2R51   NG2R52    CG314     5   122.570000   200.497280   0.24801000     12552.00
  CG2R51   NG2R52    CG324     5   122.570000   200.497280   0.24801000     12552.00
  CG2R51   NG2R52    CG334     5   122.570000   200.497280   0.24801000     12552.00
  CG2R51   NG2R52   CG3C53     5   111.900000   845.168000   0.00000000         0.00
  CG2R51   NG2R52   CG3C54     5   111.900000   845.168000   0.00000000         0.00
  CG2R51   NG2R52   NG2R51     5   133.160100   190.874080   0.00000000         0.00
  CG2R51   NG2R52    NG3N1     5   119.467200   436.391200   0.00000000         0.00
  CG2R51   NG2R52    OG311     5   111.721900   568.354560   0.00000000         0.00
  CG2R51   NG2R52    OG312     5   128.021100   549.610240   0.00000000         0.00
  CG2R51   NG2R52     HGP2     5   124.900000   209.200000   0.21300000     12552.00
  CG2R52   NG2R52   CG3C54     5   111.900000   845.168000   0.00000000         0.00
  CG2R52   NG2R52     HGP2     5   123.200000   242.672000   0.00000000         0.00
  CG2R53   NG2R52   CG2R57     5   108.000000  1213.360000   0.00000000         0.00
  CG2R53   NG2R52   CG2R61     5   115.801200   144.682720   0.00000000         0.00
  CG2R53   NG2R52   CG2R64     5   112.971000   253.801440   0.00000000         0.00
  CG2R53   NG2R52   CG2RC0     5   108.000000   861.904000   0.00000000         0.00
  CG2R53   NG2R52    CG314     5   126.300000   368.192000   0.24300000     19246.40
  CG2R53   NG2R52    CG324     5   126.300000   368.192000   0.24300000     19246.40
  CG2R53   NG2R52    CG334     5   126.300000   368.192000   0.24300000     19246.40
  CG2R53   NG2R52   CG3C31     5   128.346700   282.922080   0.00000000         0.00
  CG2R53   NG2R52   CG3C50     5   100.663400   861.067200   0.00000000         0.00
  CG2R53   NG2R52   CG3C53     5   108.000000  1171.520000   0.00000000         0.00
  CG2R53   NG2R52   CG3C54     5   108.000000  1171.520000   0.00000000         0.00
  CG2R53   NG2R52   CG3RC1     5    97.743500   543.836320   0.00000000         0.00
  CG2R53   NG2R52   NG2R50     5   107.876800   801.403360   0.00000000         0.00
  CG2R53   NG2R52   NG2R51     5   105.807600  1532.599200   0.00000000         0.00
  CG2R53   NG2R52    NG3N1     5   117.200500   877.301120   0.00000000         0.00
  CG2R53   NG2R52    OG311     5   110.335300   437.897440   0.00000000         0.00
  CG2R53   NG2R52    OG312     5   128.810700   369.447200   0.00000000         0.00
  CG2R53   NG2R52     HGP2     5   127.100000   209.200000   0.20900000     12552.00
  CG2R57   NG2R52    CG324     5   122.570000   200.497280   0.24801000     12552.00
  CG2R57   NG2R52   CG3C54     5   111.900000   845.168000   0.00000000         0.00
  CG2R57   NG2R52     HGP2     5   124.900000   209.200000   0.21300000     12552.00
  CG2R61   NG2R52   CG2RC0     5   146.517700   213.635040   0.00000000         0.00
  CG2R61   NG2R52   CG3C54     5   128.102400   185.769600   0.00000000         0.00
  CG2R61   NG2R52   NG2R50     5   122.005700   271.290560   0.00000000         0.00
  CG2R62   NG2R52   CG3C54     5   137.272600   236.061280   0.00000000         0.00
  CG2R63   NG2R52   CG2RC0     5   148.204200   868.933120   0.00000000         0.00
  CG2R63   NG2R52   CG3C54     5   128.809900    21.254720   0.00000000         0.00
  CG2R64   NG2R52   CG2RC0     5   146.143200   300.996960   0.00000000         0.00
  CG2RC0   NG2R52    CG334     5   124.900000   368.192000   0.00000000         0.00
  CG2RC0   NG2R52   CG3C31     5   129.801800   253.383040   0.00000000         0.00
  CG2RC0   NG2R52   CG3C53     5   111.900000   845.168000   0.00000000         0.00
  CG2RC0   NG2R52   CG3C54     5   111.900000   845.168000   0.00000000         0.00
  CG2RC0   NG2R52    NG3N1     5   113.726300   323.925280   0.00000000         0.00
  CG2RC0   NG2R52     HGP2     5   126.900000   326.352000   0.00000000         0.00
   CG324   NG2R52   CG3C54     5   109.171400   197.233760   0.00000000         0.00
   CG334   NG2R52   CG3C50     5   120.941400   211.877760   0.00000000         0.00
   CG334   NG2R52   CG3C54     5   126.540300   149.201440   0.00000000         0.00
   CG334   NG2R52   NG2R50     5   117.165100   249.366400   0.00000000         0.00
  CG3C53   NG2R52     HGP2     5   124.900000   242.672000   0.00000000         0.00
  CG3C54   NG2R52   CG3C54     5   140.911100   732.451040   0.00000000         0.00
  CG3C54   NG2R52     HGP2     5   124.900000   242.672000   0.00000000         0.00
  CG3RC1   NG2R52     HGP2     5   130.017200   243.341440   0.00000000         0.00
  CG251O   NG2R53   CG2R53     5   117.500000   970.688000   0.00000000         0.00
  CG251O   NG2R53     HGP1     5   123.000000   317.984000   0.00000000         0.00
  CG252O   NG2R53   CG2R53     5   117.500000   970.688000   0.00000000         0.00
  CG252O   NG2R53     HGP1     5   123.000000   317.984000   0.00000000         0.00
   CG2O1   NG2R53   CG2R53     5   141.533700   192.296640   0.00000000         0.00
   CG2O1   NG2R53   CG2RC0     5   128.516200   199.158400   0.00000000         0.00
  CG2R51   NG2R53   CG2R53     5   120.500000   460.240000   0.00000000         0.00
  CG2R51   NG2R53     HGP1     5   119.500000   317.984000   0.00000000         0.00
  CG2R53   NG2R53   CG2R53     5   120.500000   460.240000   0.00000000         0.00
  CG2R53   NG2R53   CG2R61     5   118.893000   288.361280   0.00000000         0.00
  CG2R53   NG2R53   CG2R64     5   135.648300   288.277600   0.00000000         0.00
  CG2R53   NG2R53   CG2RC0     5   111.000000   292.880000   0.00000000         0.00
  CG2R53   NG2R53    CG301     5   118.561700   233.718240   0.00000000         0.00
  CG2R53   NG2R53    CG311     5   120.000000   418.400000   0.00000000         0.00
  CG2R53   NG2R53    CG321     5   120.000000   418.400000   0.00000000         0.00
  CG2R53   NG2R53    CG331     5   124.000000   251.040000   0.00000000         0.00
  CG2R53   NG2R53   CG3C31     5   120.000000   418.400000   0.00000000         0.00
  CG2R53   NG2R53   CG3C41     5   120.000000   418.400000   0.00000000         0.00
  CG2R53   NG2R53   CG3C50     5   116.361700  1027.423040   0.00000000         0.00
  CG2R53   NG2R53   CG3C51     5   110.028600   291.457440   0.00000000         0.00
  CG2R53   NG2R53   CG3C52     5   111.000000   627.600000   0.00000000         0.00
  CG2R53   NG2R53   CG3RC1     5   112.000000   627.600000   0.00000000         0.00
  CG2R53   NG2R53   NG2R50     5   104.876000   442.499840   0.00000000         0.00
  CG2R53   NG2R53   NG2R53     5   108.575900   507.351840   0.00000000         0.00
  CG2R53   NG2R53   NG3C51     5   101.069600   863.744960   0.00000000         0.00
  CG2R53   NG2R53    SG311     5   105.334500   289.700160   0.00000000         0.00
  CG2R53   NG2R53    SG3O2     5   115.785600   297.482400   0.00000000         0.00
  CG2R53   NG2R53     HGP1     5   119.500000   317.984000   0.00000000         0.00
  CG2R61   NG2R53   CG3C52     5   119.759800   259.910080   0.00000000         0.00
  CG2RC0   NG2R53    CG331     5   125.000000   251.040000   0.00000000         0.00
  CG2RC0   NG2R53     HGP1     5   119.500000   317.984000   0.00000000         0.00
   CG301   NG2R53   CG3C52     5   111.192700   320.829120   0.00000000         0.00
   CG301   NG2R53   CG3RC1     5   121.011400   427.437440   0.00000000         0.00
   CG311   NG2R53   CG3C52     5   121.490500   179.409920   0.00000000         0.00
   CG321   NG2R53   CG3RC1     5   116.070900   144.013280   0.00000000         0.00
   CG331   NG2R53   CG3C50     5   118.623900   188.196320   0.00000000         0.00
   CG331   NG2R53   CG3C51     5   133.879300   204.011840   0.00000000         0.00
   CG331   NG2R53   CG3C52     5   123.872100   353.966400   0.00000000         0.00
   CG331   NG2R53   CG3RC1     5   123.675700   241.835200   0.00000000         0.00
   CG331   NG2R53   NG2R50     5   120.827100   367.271520   0.00000000         0.00
   CG331   NG2R53   NG2R53     5   112.684700   629.357280   0.00000000         0.00
  CG3C31   NG2R53     HGP1     5   118.071600   247.023360   0.00000000         0.00
  CG3C41   NG2R53     HGP1     5   119.519400   275.223520   0.00000000         0.00
  CG3C50   NG2R53     HGP1     5   129.297800   299.658080   0.00000000         0.00
  CG3C51   NG2R53   CG3C52     5   110.041500   436.725920   0.00000000         0.00
  CG3C51   NG2R53     HGP1     5   117.228100   279.909600   0.00000000         0.00
  CG3C52   NG2R53   CG3RC1     5   100.292600   734.543040   0.00000000         0.00
  CG3C52   NG2R53   NG3C51     5   104.572700   510.029600   0.00000000         0.00
  CG3C52   NG2R53     HGP1     5   116.000000   317.984000   0.00000000         0.00
  CG3RC1   NG2R53     HGP1     5   116.000000   317.984000   0.00000000         0.00
  NG2R50   NG2R53     HGP1     5   108.776800   341.916480   0.00000000         0.00
  NG2R53   NG2R53     HGP1     5   109.586200   494.214080   0.00000000         0.00
   SG311   NG2R53     HGP1     5   108.020900   343.255360   0.00000000         0.00
   SG3O2   NG2R53     HGP1     5   109.182300   218.070080   0.00000000         0.00
  CG2R51   NG2R57   CG2R51     5   109.000000   836.800000   0.00000000         0.00
  CG2R51   NG2R57   CG2R57     5   125.500000   351.456000   0.00000000         0.00
  CG2R51   NG2R57   NG2R57     5   125.500000   451.872000   0.00000000         0.00
  CG2R53   NG2R57   CG2R57     5   125.500000   351.456000   0.00000000         0.00
  CG2R53   NG2R57   CG3C52     5   129.391000   734.710400   0.00000000         0.00
  CG2R53   NG2R57   NG2R50     5   114.025500   731.112160   0.00000000         0.00
  CG2R57   NG2R57   CG2RC0     5   125.500000   351.456000   0.00000000         0.00
  CG2R57   NG2R57   CG3C51     5   108.356800   168.196800   0.00000000         0.00
  CG2R57   NG2R57   CG3C52     5   117.010700   304.009440   0.00000000         0.00
  CG2R57   NG2R57   NG2R50     5   114.971000   333.130080   0.00000000         0.00
  CG2RC0   NG2R57   CG3C52     5   117.275700   281.415840   0.00000000         0.00
  CG3C51   NG2R57   CG3C52     5   107.386600   539.819680   0.00000000         0.00
  CG3C52   NG2R57   CG3C52     5   153.085200   357.732000   0.00000000         0.00
  CG2R61   NG2R60   CG2R61     5   112.000000   167.360000   0.00000000         0.00
  CG2R61   NG2R60   CG2R62     5   112.000000   167.360000   0.00000000         0.00
  CG2R61   NG2R60   CG2R64     5   112.000000   167.360000   0.00000000         0.00
  CG2R61   NG2R60   CG2R67     5   109.200000   167.360000   0.00000000         0.00
  CG2R61   NG2R60     HGP1     5   114.580000   236.730720   0.00000000         0.00
  CG2R62   NG2R60   CG2R62     5   112.000000   167.360000   0.00000000         0.00
  CG2R62   NG2R60   CG2R64     5   112.000000   167.360000   0.00000000         0.00
  CG2R62   NG2R60   CG2R67     5   109.200000   167.360000   0.00000000         0.00
  CG2R64   NG2R60   CG2R64     5   112.000000   167.360000   0.00000000         0.00
  CG2R64   NG2R60   CG2RC0     5   112.000000   167.360000   0.00000000         0.00
  CG2R66   NG2R60   CG2R66     5   112.000000   167.360000   0.00000000         0.00
  CG2D1O   NG2R61   CG2R63     5   117.716000    52.048960   0.00000000         0.00
  CG2D1O   NG2R61   CG2R64     5   132.183800   311.791680   0.00000000         0.00
  CG2D2O   NG2R61   CG2R63     5   117.716000    52.048960   0.00000000         0.00
  CG2D2O   NG2R61   CG2R64     5   132.183800   311.791680   0.00000000         0.00
   CG2N1   NG2R61   CG2R63     5   111.615000   242.672000   0.00000000         0.00
   CG2N1   NG2R61   CG2R64     5   122.585800   198.070560   0.00000000         0.00
   CG2O1   NG2R61   CG2R61     5   119.177700   244.010880   0.00000000         0.00
   CG2O1   NG2R61   CG2R64     5   131.283200   223.090880   0.00000000         0.00
  CG2R51   NG2R61   CG2R61     5   142.850900    82.843200   0.00000000         0.00
  CG2R51   NG2R61   CG2R62     5   104.705400   434.215520   0.00000000         0.00
  CG2R51   NG2R61   CG2R64     5   109.460800   433.546080   0.00000000         0.00
  CG2R53   NG2R61   CG2R62     5   108.407400   403.253920   0.00000000         0.00
  CG2R61   NG2R61   CG2R61     5   120.000000   251.040000   0.00000000         0.00
  CG2R61   NG2R61   CG2R62     5   120.000000   251.040000   0.00000000         0.00
  CG2R61   NG2R61   CG2R63     5   123.900000    83.680000   0.00000000         0.00
  CG2R61   NG2R61   CG2R64     5   132.070000   576.387840   0.00000000         0.00
  CG2R61   NG2R61   CG2RC0     5   137.556900   412.040320   0.00000000         0.00
  CG2R61   NG2R61    CG321     5   117.660000   223.509280   0.00000000         0.00
  CG2R61   NG2R61    CG324     5   118.400000   376.560000   0.00000000         0.00
  CG2R61   NG2R61    CG331     5   120.500000   585.760000   0.00000000         0.00
  CG2R61   NG2R61    CG334     5   118.400000   376.560000   0.00000000         0.00
  CG2R61   NG2R61   NG2R62     5   141.517700   189.116800   0.00000000         0.00
  CG2R61   NG2R61    NG2S3     5    93.256500   204.848640   0.00000000         0.00
  CG2R61   NG2R61     HGP1     5   120.700000   276.144000   0.00000000         0.00
  CG2R62   NG2R61   CG2R62     5   120.000000   251.040000   0.00000000         0.00
  CG2R62   NG2R61   CG2R63     5   122.000000   585.760000   0.00000000         0.00
  CG2R62   NG2R61   CG2R64     5   122.000000   585.760000   0.00000000         0.00
  CG2R62   NG2R61   CG2R67     5   120.000000   251.040000   0.00000000         0.00
  CG2R62   NG2R61   CG2RC0     5   120.000000   251.040000   0.00000000         0.00
  CG2R62   NG2R61    CG311     5   117.660000   223.509280   0.00000000         0.00
  CG2R62   NG2R61    CG312     5   107.712000   136.649440   0.00000000         0.00
  CG2R62   NG2R61    CG314     5   118.400000   376.560000   0.00000000         0.00
  CG2R62   NG2R61    CG321     5   117.660000   223.509280   0.00000000         0.00
  CG2R62   NG2R61    CG324     5   118.400000   376.560000   0.00000000         0.00
  CG2R62   NG2R61    CG331     5   120.500000   585.760000   0.00000000         0.00
  CG2R62   NG2R61    CG334     5   103.394400   436.223840   0.00000000         0.00
  CG2R62   NG2R61   CG3C51     5   118.400000   376.560000   0.00000000         0.00
  CG2R62   NG2R61   CG3C53     5   118.400000   376.560000   0.00000000         0.00
  CG2R62   NG2R61   CG3RC1     5   115.900000   376.560000   0.00000000         0.00
  CG2R62   NG2R61    NG2D1     5   108.289700   936.546560   0.00000000         0.00
  CG2R62   NG2R61    OG301     5   107.742300   531.619040   0.00000000         0.00
  CG2R62   NG2R61    OG311     5   103.802300   470.030560   0.00000000         0.00
  CG2R62   NG2R61   OG3R60     5    98.820500   762.408480   0.00000000         0.00
  CG2R62   NG2R61     FGP1     5    95.780700   635.800640   0.00000000         0.00
  CG2R62   NG2R61     HGP1     5   117.400000   267.776000   0.00000000         0.00
  CG2R62   NG2R61     HGP2     5   117.400000   267.776000   0.00000000         0.00
  CG2R63   NG2R61   CG2R63     5   130.200000   418.400000   0.00000000         0.00
  CG2R63   NG2R61   CG2R64     5   131.100000   585.760000   0.00000000         0.00
  CG2R63   NG2R61   CG2R66     5   122.000000   585.760000   0.00000000         0.00
  CG2R63   NG2R61   CG2RC0     5   136.936000   215.141280   0.00000000         0.00
  CG2R63   NG2R61    CG301     5   115.400000   585.760000   0.00000000         0.00
  CG2R63   NG2R61    CG311     5   115.400000   585.760000   0.00000000         0.00
  CG2R63   NG2R61    CG312     5   108.918700   259.491680   0.00000000         0.00
  CG2R63   NG2R61    CG321     5   115.400000   585.760000   0.00000000         0.00
  CG2R63   NG2R61    CG324     5   118.400000   376.560000   0.00000000         0.00
  CG2R63   NG2R61    CG331     5   115.400000   585.760000   0.00000000         0.00
  CG2R63   NG2R61   CG3C51     5   118.400000   376.560000   0.00000000         0.00
  CG2R63   NG2R61   CG3C52     5   118.400000   376.560000   0.00000000         0.00
  CG2R63   NG2R61   CG3RC1     5   120.000000   376.560000   0.00000000         0.00
  CG2R63   NG2R61    NG2O1     5   107.786600   369.949280   0.00000000         0.00
  CG2R63   NG2R61   NG2R61     5   125.031100   125.436320   0.00000000         0.00
  CG2R63   NG2R61   NG2RC0     5   108.863800     8.535360   0.00000000         0.00
  CG2R63   NG2R61    NG2S3     5   123.668700   246.270240   0.00000000         0.00
  CG2R63   NG2R61    OG311     5    95.987200   525.092000   0.00000000         0.00
  CG2R63   NG2R61    OG312     5   100.451000   299.490720   0.00000000         0.00
  CG2R63   NG2R61     HGP1     5   115.400000   338.904000   0.00000000         0.00
  CG2R64   NG2R61   CG2R64     5   131.100000   585.760000   0.00000000         0.00
  CG2R64   NG2R61   CG2RC0     5   132.070000   576.387840   0.00000000         0.00
  CG2R64   NG2R61    CG311     5   114.870000   537.811360   0.00000000         0.00
  CG2R64   NG2R61    CG321     5   114.870000   537.811360   0.00000000         0.00
  CG2R64   NG2R61    CG324     5   118.400000   376.560000   0.00000000         0.00
  CG2R64   NG2R61    CG331     5   115.400000   418.400000   0.00000000         0.00
  CG2R64   NG2R61    CG334     5   118.400000   376.560000   0.00000000         0.00
  CG2R64   NG2R61   CG3C52     5   118.400000   376.560000   0.00000000         0.00
  CG2R64   NG2R61    NG2S3     5   110.382500   335.054720   0.00000000         0.00
  CG2R64   NG2R61     HGP1     5   115.600000   376.560000   0.00000000         0.00
  CG2R64   NG2R61     HGP2     5   114.180700   309.616000   0.00000000         0.00
  CG2R66   NG2R61     HGP1     5   117.400000   267.776000   0.00000000         0.00
  CG2R67   NG2R61     FGP1     5    79.879500   461.327840   0.00000000         0.00
  CG2RC0   NG2R61   CG2RC0     5   120.000000   251.040000   0.00000000         0.00
  CG2RC0   NG2R61    CG324     5   118.400000   376.560000   0.00000000         0.00
  CG2RC0   NG2R61    CG331     5   120.500000   200.832000   0.00000000         0.00
  CG2RC0   NG2R61   CG3C52     5   118.400000   376.560000   0.00000000         0.00
  CG2RC0   NG2R61     HGP1     5   117.400000   267.776000   0.00000000         0.00
  CG2RC0   NG2R61     HGP2     5   117.400000   267.776000   0.00000000         0.00
   CG301   NG2R61   NG2R61     5   104.287900   339.238720   0.00000000         0.00
  NG2R61   NG2R61     HGP1     5   105.049800   330.954400   0.00000000         0.00
  NG2R62   NG2R61     HGP1     5   101.428600   451.286240   0.00000000         0.00
  NG2RC0   NG2R61     HGP1     5   103.643500   256.562880   0.00000000         0.00
  CG2R61   NG2R62   CG2R63     5   110.500000   334.720000   0.00000000         0.00
  CG2R61   NG2R62   CG2R64     5   110.500000   334.720000   0.00000000         0.00
  CG2R61   NG2R62   CG2RC0     5   115.100000   753.120000   0.00000000         0.00
  CG2R61   NG2R62   NG2R61     5   122.056700   815.880000   0.00000000         0.00
  CG2R61   NG2R62   NG2R62     5   120.000000    83.680000   0.00000000         0.00
  CG2R61   NG2R62   NG2RC0     5   114.301800   634.378080   0.00000000         0.00
  CG2R62   NG2R62   CG2R62     5   114.100000   209.200000   0.00000000         0.00
  CG2R62   NG2R62   CG2R63     5   110.500000   334.720000   0.00000000         0.00
  CG2R62   NG2R62   CG2R64     5   115.500000   585.760000   0.00000000         0.00
  CG2R62   NG2R62   CG2RC0     5   115.100000   753.120000   0.00000000         0.00
  CG2R62   NG2R62   NG2R62     5   120.000000    83.680000   0.00000000         0.00
  CG2R62   NG2R62   NG2R67     5   126.219400   537.309280   0.00000000         0.00
  CG2R62   NG2R62   NG2RC0     5   121.040900   717.723360   0.00000000         0.00
  CG2R63   NG2R62   CG2R64     5   119.100000   711.280000   0.00000000         0.00
  CG2R63   NG2R62   CG2RC0     5   115.100000   753.120000   0.00000000         0.00
  CG2R63   NG2R62   NG2R62     5   121.000000   543.920000   0.00000000         0.00
  CG2R64   NG2R62   CG2R64     5   117.800000   753.120000   0.00000000         0.00
  CG2R64   NG2R62   CG2R67     5   110.500000   334.720000   0.00000000         0.00
  CG2R64   NG2R62   CG2RC0     5   115.100000   753.120000   0.00000000         0.00
  CG2R64   NG2R62   NG2R62     5   121.000000   543.920000   0.00000000         0.00
  CG2R66   NG2R62   NG2R62     5   120.000000    83.680000   0.00000000         0.00
  CG2RC0   NG2R62   NG2R62     5   120.000000    83.680000   0.00000000         0.00
  NG2R62   NG2R62   NG2R62     5   120.704700  1132.106720   0.00000000         0.00
  CG2R61   NG2R67   CG2R64     5   128.700000   585.760000   0.00000000         0.00
  CG2R61   NG2R67   CG2R67     5   120.000000   435.136000   0.00000000         0.00
  CG2R62   NG2R67   CG2R62     5   120.000000   251.040000   0.00000000         0.00
  CG2R62   NG2R67   CG2R63     5   128.700000   585.760000   0.00000000         0.00
  CG2R62   NG2R67   CG2R67     5   120.000000   435.136000   0.00000000         0.00
  CG2R63   NG2R67   CG2R63     5   128.700000   418.400000   0.00000000         0.00
  CG2R63   NG2R67   CG2R64     5   126.100000   585.760000   0.00000000         0.00
  CG2R63   NG2R67   CG2R67     5   111.300000   276.144000   0.00000000         0.00
  CG2R63   NG2R67   CG2RC0     5   129.238900   674.377120   0.00000000         0.00
  CG2R63   NG2R67   NG2R62     5   150.360600   394.049120   0.00000000         0.00
  CG2R64   NG2R67   CG2R67     5   121.000000   460.240000   0.00000000         0.00
  CG2R67   NG2R67   CG2RC0     5   113.637400   309.113920   0.00000000         0.00
  CG2R67   NG2R67   NG2R62     5   114.856200   355.556320   0.00000000         0.00
  CG2R51   NG2RC0   CG2R61     5   130.500000   125.520000   0.00000000         0.00
  CG2R51   NG2RC0   CG2R62     5   130.500000   125.520000   0.00000000         0.00
  CG2R51   NG2RC0   CG2R63     5   122.500000   460.240000   0.00000000         0.00
  CG2R51   NG2RC0   CG2R67     5   105.139300   771.696960   0.00000000         0.00
  CG2R51   NG2RC0   CG2RC0     5   109.700000   836.800000   0.00000000         0.00
  CG2R51   NG2RC0   NG2R61     5   117.815100   373.882240   0.00000000         0.00
  CG2R51   NG2RC0   NG2R62     5   115.939700   321.749600   0.00000000         0.00
  CG2R53   NG2RC0   CG2R61     5   130.500000   125.520000   0.00000000         0.00
  CG2R53   NG2RC0   CG2RC0     5   109.700000   836.800000   0.00000000         0.00
  CG2R53   NG2RC0   NG2R62     5   117.103900   451.202560   0.00000000         0.00
  CG2R57   NG2RC0   CG2R61     5   130.500000   125.520000   0.00000000         0.00
  CG2R57   NG2RC0   CG2RC0     5   109.700000   836.800000   0.00000000         0.00
  CG2R61   NG2RC0   CG2R67     5   114.316300   457.478560   0.00000000         0.00
  CG2R61   NG2RC0   CG2RC0     5   119.800000   125.520000   0.00000000         0.00
  CG2R61   NG2RC0   NG2R50     5   112.351300   416.140640   0.00000000         0.00
  CG2R62   NG2RC0   CG2R67     5   132.559300   598.981440   0.00000000         0.00
  CG2R62   NG2RC0   CG2RC0     5   119.800000   125.520000   0.00000000         0.00
  CG2R62   NG2RC0   CG3C54     5   107.821400   271.039520   0.00000000         0.00
  CG2R63   NG2RC0   CG2RC0     5   127.800000   502.080000   0.00000000         0.00
  CG2R64   NG2RC0   CG2RC0     5   127.800000   502.080000   0.00000000         0.00
  CG2R64   NG2RC0   NG2R50     5   111.530400   551.534880   0.00000000         0.00
  CG2R66   NG2RC0   CG2RC0     5   119.800000   125.520000   0.00000000         0.00
  CG2R66   NG2RC0   NG2R50     5   102.522500   485.929760   0.00000000         0.00
  CG2R67   NG2RC0   CG2RC0     5   102.280800  1007.590880   0.00000000         0.00
  CG2RC0   NG2RC0   CG3C54     5   133.104200   592.119680   0.00000000         0.00
  CG2RC0   NG2RC0   NG2R50     5   114.856300   607.182080   0.00000000         0.00
  CG2RC0   NG2RC0   NG2R61     5   134.410400   282.168960   0.00000000         0.00
  CG2RC0   NG2RC0   NG2R62     5   125.553600   249.617440   0.00000000         0.00
  NG2R50   NG2RC0   NG2R62     5   113.126300   706.677600   0.00000000         0.00
  CG2D1O    NG2S0    CG2O1     5   114.689600   456.139680   0.00000000         0.00
  CG2D1O    NG2S0    CG311     5   109.321600   193.049760   0.00000000         0.00
  CG2D1O    NG2S0    CG331     5   111.242900   260.914240   0.00000000         0.00
  CG2D2O    NG2S0    CG2O1     5   114.689600   456.139680   0.00000000         0.00
  CG2D2O    NG2S0    CG311     5   109.321600   193.049760   0.00000000         0.00
  CG2D2O    NG2S0    CG331     5   111.242900   260.914240   0.00000000         0.00
   CG2O1    NG2S0    CG2O1     5   129.359600   577.057280   0.00000000         0.00
   CG2O1    NG2S0    CG2O6     5   120.780000   369.028800   0.00000000         0.00
   CG2O1    NG2S0   CG2R61     5   120.000000   418.400000   0.00000000         0.00
   CG2O1    NG2S0   CG2R64     5   118.000000   502.080000   0.00000000         0.00
   CG2O1    NG2S0   CG2RC0     5   120.000000   418.400000   0.00000000         0.00
   CG2O1    NG2S0    CG301     5   119.500000   351.456000   0.00000000         0.00
   CG2O1    NG2S0    CG311     5   119.500000   351.456000   0.00000000         0.00
   CG2O1    NG2S0    CG321     5   119.500000   351.456000   0.00000000         0.00
   CG2O1    NG2S0    CG331     5   119.500000   351.456000   0.00000000         0.00
   CG2O1    NG2S0   CG3C31     5   117.000000   502.080000   0.00000000         0.00
   CG2O1    NG2S0   CG3C50     5   117.000000   502.080000   0.00000000         0.00
   CG2O1    NG2S0   CG3C51     5   117.000000   502.080000   0.00000000         0.00
   CG2O1    NG2S0   CG3C52     5   117.000000   502.080000   0.00000000         0.00
   CG2O1    NG2S0   CG3RC1     5   117.000000   502.080000   0.00000000         0.00
   CG2O1    NG2S0    NG2D1     5   113.394900   258.403840   0.00000000         0.00
   CG2O1    NG2S0    NG2S1     5   110.832000   745.254080   0.00000000         0.00
   CG2O1    NG2S0    NG3N1     5   111.488000   498.230720   0.00000000         0.00
   CG2O1    NG2S0    OG301     5   105.982500   420.492000   0.00000000         0.00
   CG2O1    NG2S0    OG311     5   101.450000   399.823040   0.00000000         0.00
   CG2O3    NG2S0    CG311     5   119.500000   351.456000   0.00000000         0.00
   CG2O3    NG2S0    CG321     5   119.500000   351.456000   0.00000000         0.00
   CG2O3    NG2S0   CG3RC1     5   117.000000   502.080000   0.00000000         0.00
   CG2O6    NG2S0   CG2R61     5   115.000000   502.080000   0.00000000         0.00
   CG2O6    NG2S0   CG2R64     5   118.000000   502.080000   0.00000000         0.00
   CG2O6    NG2S0    CG311     5   117.000000   330.536000   0.00000000         0.00
   CG2O6    NG2S0    CG321     5   117.000000   330.536000   0.00000000         0.00
   CG2O6    NG2S0    CG331     5   116.000000   317.984000   0.00000000         0.00
   CG2O6    NG2S0   CG3C41     5   117.000000   330.536000   0.00000000         0.00
   CG2O6    NG2S0   CG3C50     5   117.000000   502.080000   0.00000000         0.00
   CG2O6    NG2S0   CG3RC1     5   117.000000   502.080000   0.00000000         0.00
   CG2O6    NG2S0   NG2R50     5    95.576100   476.641280   0.00000000         0.00
   CG2O6    NG2S0    NG2S1     5    93.664300   654.293920   0.00000000         0.00
   CG2O6    NG2S0   OG3C61     5   108.654500   295.892480   0.00000000         0.00
   CG2O6    NG2S0    SG3O2     5   109.018500   333.213760   0.00000000         0.00
  CG2R61    NG2S0    CG301     5   119.500000   351.456000   0.00000000         0.00
  CG2R61    NG2S0    CG311     5   119.500000   351.456000   0.00000000         0.00
  CG2R61    NG2S0    CG321     5   119.500000   351.456000   0.00000000         0.00
  CG2R61    NG2S0    CG331     5   115.500000   376.560000   0.00000000         0.00
  CG2R64    NG2S0    CG331     5   117.500000   376.560000   0.00000000         0.00
  CG2R64    NG2S0    NG2S1     5   103.366000   414.718080   0.00000000         0.00
  CG2RC0    NG2S0   CG3C51     5   115.552600   525.259360   0.00000000         0.00
  CG2RC0    NG2S0   CG3C52     5   115.560500   572.120160   0.00000000         0.00
  CG2RC0    NG2S0   CG3RC1     5   116.341100   865.753280   0.00000000         0.00
   CG301    NG2S0    CG321     5   121.000000   376.560000   0.00000000         0.00
   CG311    NG2S0    CG311     5   121.000000   376.560000   0.00000000         0.00
   CG311    NG2S0    CG321     5   121.000000   376.560000   0.00000000         0.00
   CG311    NG2S0    CG331     5   121.000000   376.560000   0.00000000         0.00
   CG311    NG2S0   CG3C31     5   121.000000   376.560000   0.00000000         0.00
   CG321    NG2S0    CG321     5   121.000000   376.560000   0.00000000         0.00
   CG321    NG2S0    CG331     5   121.000000   334.720000   0.00000000         0.00
   CG321    NG2S0   CG3C50     5   119.971900   212.212480   0.00000000         0.00
   CG321    NG2S0   CG3C51     5   118.097900   284.428320   0.00000000         0.00
   CG321    NG2S0    NG3N1     5   111.605500   305.599360   0.00000000         0.00
   CG321    NG2S0    OG301     5   112.682700   524.589920   0.00000000         0.00
   CG321    NG2S0    OG311     5   101.750000   322.753760   0.00000000         0.00
   CG321    NG2S0    SG3O2     5   120.210300   277.315520   0.00000000         0.00
   CG331    NG2S0    CG331     5   121.000000   376.560000   0.00000000         0.00
   CG331    NG2S0    NG2D1     5   116.010700   373.882240   0.00000000         0.00
   CG331    NG2S0    NG2S1     5   117.379200   397.731040   0.00000000         0.00
   CG331    NG2S0   OG3C61     5   103.713900   444.257120   0.00000000         0.00
  CG3C41    NG2S0   CG3RC1     5   114.200000   836.800000   0.00000000         0.00
  CG3C50    NG2S0   CG3C52     5   114.200000   836.800000   0.00000000         0.00
  CG3C50    NG2S0   NG2R50     5   114.387300   660.402560   0.00000000         0.00
  CG3C51    NG2S0   CG3C52     5   114.200000   836.800000   0.00000000         0.00
  CG3C51    NG2S0   CG3RC1     5   114.200000   836.800000   0.00000000         0.00
  CG3C52    NG2S0   CG3C52     5   114.200000   836.800000   0.00000000         0.00
  CG3C52    NG2S0   CG3RC1     5   114.200000   836.800000   0.00000000         0.00
  CG3RC1    NG2S0   CG3RC1     5   114.200000   836.800000   0.00000000         0.00
  CG2D1O    NG2S1    CG2O1     5   120.490000   360.911840   0.00000000         0.00
  CG2D1O    NG2S1     HGP1     5   121.530000   251.458400   0.00000000         0.00
  CG2D2O    NG2S1    CG2O1     5   120.490000   360.911840   0.00000000         0.00
  CG2D2O    NG2S1     HGP1     5   121.530000   251.458400   0.00000000         0.00
   CG2O1    NG2S1    CG2O1     5   124.600000   391.622400   0.00000000         0.00
   CG2O1    NG2S1    CG2O6     5   124.600000   391.622400   0.00000000         0.00
   CG2O1    NG2S1   CG2R51     5   120.000000   418.400000   0.00000000         0.00
   CG2O1    NG2S1   CG2R53     5   120.000000   418.400000   0.00000000         0.00
   CG2O1    NG2S1   CG2R61     5   120.000000   418.400000   0.00000000         0.00
   CG2O1    NG2S1   CG2R62     5   120.000000   418.400000   0.00000000         0.00
   CG2O1    NG2S1   CG2R64     5   120.000000   418.400000   0.00000000         0.00
   CG2O1    NG2S1    CG301     5   120.000000   418.400000   0.00000000         0.00
   CG2O1    NG2S1    CG311     5   120.000000   418.400000   0.00000000         0.00
   CG2O1    NG2S1    CG321     5   120.000000   418.400000   0.00000000         0.00
   CG2O1    NG2S1    CG331     5   120.000000   418.400000   0.00000000         0.00
   CG2O1    NG2S1   CG3C41     5   120.000000   418.400000   0.00000000         0.00
   CG2O1    NG2S1   CG3C50     5   120.000000   418.400000   0.00000000         0.00
   CG2O1    NG2S1   CG3C51     5   120.000000   418.400000   0.00000000         0.00
   CG2O1    NG2S1   CG3RC1     5   120.000000   418.400000   0.00000000         0.00
   CG2O1    NG2S1    NG2D1     5   115.000000   418.400000   0.00000000         0.00
   CG2O1    NG2S1    NG2S0     5   104.370300   331.707520   0.00000000         0.00
   CG2O1    NG2S1    NG2S1     5   111.703200   893.953440   0.00000000         0.00
   CG2O1    NG2S1    OG311     5   105.860000   456.223360   0.00000000         0.00
   CG2O1    NG2S1    SG3O3     5   115.459300   266.688160   0.00000000         0.00
   CG2O1    NG2S1     HGP1     5   123.000000   284.512000   0.00000000         0.00
   CG2O3    NG2S1    CG311     5   120.000000   418.400000   0.00000000         0.00
   CG2O3    NG2S1    CG321     5   120.000000   418.400000   0.00000000         0.00
   CG2O3    NG2S1     HGP1     5   123.000000   284.512000   0.00000000         0.00
   CG2O6    NG2S1   CG2R61     5   119.000000   418.400000   0.00000000         0.00
   CG2O6    NG2S1   CG2R64     5   119.000000   418.400000   0.00000000         0.00
   CG2O6    NG2S1    CG301     5   120.000000   502.080000   0.00000000         0.00
   CG2O6    NG2S1    CG311     5   120.000000   502.080000   0.00000000         0.00
   CG2O6    NG2S1    CG321     5   120.000000   502.080000   0.00000000         0.00
   CG2O6    NG2S1    CG331     5   120.000000   502.080000   0.00000000         0.00
   CG2O6    NG2S1    NG2S0     5    96.361300   818.808800   0.00000000         0.00
   CG2O6    NG2S1    NG2S1     5   108.496800   421.663520   0.00000000         0.00
   CG2O6    NG2S1     HGP1     5   121.500000   334.720000   0.00000000         0.00
  CG2R51    NG2S1     HGP1     5   117.000000   284.512000   0.00000000         0.00
  CG2R53    NG2S1     HGP1     5   117.000000   284.512000   0.00000000         0.00
  CG2R61    NG2S1     HGP1     5   117.000000   284.512000   0.00000000         0.00
  CG2R62    NG2S1     HGP1     5   117.000000   284.512000   0.00000000         0.00
  CG2R64    NG2S1     HGP1     5   117.000000   284.512000   0.00000000         0.00
  CG2R71    NG2S1    NG3N1     5   108.701900   701.573120   0.00000000         0.00
  CG2R71    NG2S1     HGP1     5   117.000000   284.512000   0.00000000         0.00
   CG301    NG2S1     HGP1     5   117.000000   292.880000   0.00000000         0.00
   CG311    NG2S1     HGP1     5   117.000000   292.880000   0.00000000         0.00
   CG321    NG2S1     HGP1     5   117.000000   292.880000   0.00000000         0.00
   CG331    NG2S1     HGP1     5   117.000000   292.880000   0.00000000         0.00
  CG3C41    NG2S1     HGP1     5   117.000000   292.880000   0.00000000         0.00
  CG3C50    NG2S1     HGP1     5   117.000000   292.880000   0.00000000         0.00
  CG3C51    NG2S1     HGP1     5   117.000000   292.880000   0.00000000         0.00
  CG3RC1    NG2S1     HGP1     5   117.000000   292.880000   0.00000000         0.00
   NG2D1    NG2S1     HGP1     5   122.000000   284.512000   0.00000000         0.00
   NG2S0    NG2S1     HGP1     5   104.511800   335.389440   0.00000000         0.00
   NG2S1    NG2S1     HGP1     5   107.501300   305.264640   0.00000000         0.00
   NG3N1    NG2S1     HGP1     5   107.067400   391.706080   0.00000000         0.00
   OG311    NG2S1     HGP1     5    98.230000   313.800000   0.00000000         0.00
   SG3O3    NG2S1     HGP1     5   114.513500   257.316000   0.00000000         0.00
   CG2O1    NG2S2     HGP1     5   120.000000   418.400000   0.00000000         0.00
   CG2O6    NG2S2     HGP1     5   120.000000   418.400000   0.00000000         0.00
    HGP1    NG2S2     HGP1     5   120.000000   192.464000   0.00000000         0.00
  CG2R61    NG2S3     HGP4     5   111.600000   502.080000   0.00000000         0.00
  CG2R62    NG2S3     HGP4     5   111.600000   502.080000   0.00000000         0.00
  CG2R64    NG2S3    CG331     5   120.000000   418.400000   0.00000000         0.00
  CG2R64    NG2S3     HGP4     5   121.500000   334.720000   0.00000000         0.00
   CG321    NG2S3    CG321     5   114.290000   407.437920   0.00000000         0.00
   CG321    NG2S3      PG1     5   118.300000   920.480000   0.23300000     29288.00
   CG321    NG2S3    SG3O1     5   104.900000   491.201600   0.00000000         0.00
   CG321    NG2S3     HGP1     5   109.500000   433.462400   0.00000000         0.00
   CG331    NG2S3    CG331     5   114.290000   407.437920   0.00000000         0.00
   CG331    NG2S3      PG0     5   118.300000   920.480000   0.23300000     29288.00
   CG331    NG2S3      PG1     5   118.300000   920.480000   0.23300000     29288.00
   CG331    NG2S3    SG3O1     5   103.100000   330.536000   0.00000000         0.00
   CG331    NG2S3     HGP1     5   109.000000   292.880000   0.00000000         0.00
  CG3C51    NG2S3      PG1     5   118.300000   920.480000   0.23300000     29288.00
  CG3C51    NG2S3     HGP1     5   109.000000   292.880000   0.00000000         0.00
  NG2R61    NG2S3     HGP4     5   106.916900   456.390720   0.00000000         0.00
     PG1    NG2S3     HGP1     5   123.600000   251.040000   0.23500000     33472.00
   SG3O1    NG2S3     HGP1     5   113.100000   393.296000   0.00000000         0.00
    HGP1    NG2S3     HGP1     5   117.000000   259.408000   0.00000000         0.00
    HGP4    NG2S3     HGP4     5   117.000000   259.408000   0.00000000         0.00
   CG1N1    NG301    CG321     5   112.121800   169.117280   0.00000000         0.00
  CG2D1O    NG301   CG2D1O     5   114.000000   167.360000   0.00000000         0.00
  CG2D1O    NG301    CG311     5   107.207300   190.957760   0.00000000         0.00
  CG2D1O    NG301    CG321     5   115.885100   422.584000   0.00000000         0.00
  CG2D1O    NG301    CG331     5   113.112100   284.009920   0.00000000         0.00
  CG2D1O    NG301   CG3C51     5   121.700000   585.760000   0.00000000         0.00
  CG2D1O    NG301    OG311     5   102.393700   251.040000   0.00000000         0.00
  CG2D2O    NG301   CG2D2O     5   114.000000   167.360000   0.00000000         0.00
  CG2D2O    NG301    CG311     5   107.207300   190.957760   0.00000000         0.00
  CG2D2O    NG301    CG321     5   115.885100   422.584000   0.00000000         0.00
  CG2D2O    NG301    CG331     5   113.112100   284.009920   0.00000000         0.00
  CG2D2O    NG301   CG3C51     5   121.700000   585.760000   0.00000000         0.00
  CG2D2O    NG301    OG311     5   102.393700   251.040000   0.00000000         0.00
   CG2N2    NG301   CG2R61     5   107.422400   343.673760   0.00000000         0.00
   CG2N2    NG301    CG331     5   106.000000   359.824000   0.00000000         0.00
  CG2R51    NG301    CG321     5   114.000000   473.712480   0.00000000         0.00
  CG2R53    NG301    CG321     5   114.000000   473.712480   0.00000000         0.00
  CG2R61    NG301   CG2R64     5   107.730000   396.224800   0.00000000         0.00
  CG2R61    NG301    CG311     5   114.000000   473.712480   0.00000000         0.00
  CG2R61    NG301    CG321     5   114.000000   473.712480   0.00000000         0.00
  CG2R61    NG301    CG331     5   113.500000   401.664000   0.00000000         0.00
  CG2R62    NG301    CG311     5   114.000000   473.712480   0.00000000         0.00
  CG2R62    NG301    CG321     5   114.000000   473.712480   0.00000000         0.00
  CG2R62    NG301    CG331     5   113.500000   401.664000   0.00000000         0.00
  CG2R64    NG301    CG311     5   111.390000   295.055680   0.00000000         0.00
  CG2R64    NG301    CG321     5   111.390000   295.055680   0.00000000         0.00
  CG2R64    NG301    CG331     5   113.500000   401.664000   0.00000000         0.00
  CG2R64    NG301    SG3O2     5   115.000000   292.880000   0.00000000         0.00
   CG301    NG301    CG311     5   112.000000   585.760000   0.00000000         0.00
   CG301    NG301    CG331     5   112.000000   585.760000   0.00000000         0.00
   CG311    NG301    CG311     5   112.000000   585.760000   0.00000000         0.00
   CG311    NG301    CG321     5   108.716400   489.946400   0.00000000         0.00
   CG311    NG301    CG331     5   103.845600   467.436480   0.00000000         0.00
   CG311    NG301    OG311     5   108.570100   348.861920   0.00000000         0.00
   CG311    NG301    SG3O2     5   111.000000   292.880000   0.00000000         0.00
   CG321    NG301    CG321     5   112.000000   585.760000   0.00000000         0.00
   CG321    NG301    CG324     5   109.950000   355.891040   0.00000000         0.00
   CG321    NG301    CG331     5   109.374900   521.410080   0.00000000         0.00
   CG321    NG301   CG3C31     5   112.000000   585.760000   0.00000000         0.00
   CG321    NG301   CG3C50     5   111.000000   585.760000   0.23100000     33472.00
   CG321    NG301   CG3C51     5   111.000000   585.760000   0.23100000     33472.00
   CG321    NG301   CG3RC1     5   111.000000   585.760000   0.23100000     33472.00
   CG321    NG301    OG301     5   104.762900   668.101120   0.00000000         0.00
   CG321    NG301   OG3C61     5   107.472900   561.409120   0.00000000         0.00
   CG321    NG301    SG3O2     5   111.000000   292.880000   0.00000000         0.00
   CG324    NG301    CG331     5   109.950000   355.891040   0.00000000         0.00
   CG331    NG301    CG331     5   116.000000   355.640000   0.00000000         0.00
   CG331    NG301   CG3C31     5   116.000000   355.640000   0.00000000         0.00
   CG331    NG301   CG3C41     5   116.000000   355.640000   0.00000000         0.00
   CG331    NG301   CG3C51     5   112.200000   753.120000   0.23600000     29288.00
   CG331    NG301   CG3RC1     5   112.200000   753.120000   0.23600000     29288.00
   CG331    NG301    OG301     5   105.203600   682.326720   0.00000000         0.00
   CG331    NG301   OG3C61     5   102.221100   646.093280   0.00000000         0.00
  CG3AM0    NG301   CG3AM0     5   110.900000   443.504000   0.00000000         0.00
  CG3C41    NG301   CG3C41     5   112.035400   604.002240   0.00000000         0.00
   CG1N1    NG311   CG2R53     5   116.740100   392.961280   0.00000000         0.00
   CG1N1    NG311   CG2R61     5   110.509300   310.703840   0.00000000         0.00
   CG1N1    NG311   HGPAM1     5   117.093000   347.439360   0.00000000         0.00
  CG2D1O    NG311   CG2D1O     5   114.000000   167.360000   0.00000000         0.00
  CG2D1O    NG311   CG2R61     5   114.874500   199.827840   0.00000000         0.00
  CG2D1O    NG311    CG311     5   121.683400   141.753920   0.00000000         0.00
  CG2D1O    NG311    CG321     5   110.911600   316.561440   0.00000000         0.00
  CG2D1O    NG311    SG3O2     5   107.844400   322.335360   0.00000000         0.00
  CG2D1O    NG311     HGP1     5   123.000000   326.352000   0.00000000         0.00
  CG2D1O    NG311   HGPAM1     5   123.000000   326.352000   0.00000000         0.00
  CG2D2O    NG311   CG2D2O     5   114.000000   167.360000   0.00000000         0.00
  CG2D2O    NG311   CG2R61     5   114.874500   199.827840   0.00000000         0.00
  CG2D2O    NG311    CG311     5   121.683400   141.753920   0.00000000         0.00
  CG2D2O    NG311    CG321     5   110.911600   316.561440   0.00000000         0.00
  CG2D2O    NG311    SG3O2     5   107.844400   322.335360   0.00000000         0.00
  CG2D2O    NG311     HGP1     5   123.000000   326.352000   0.00000000         0.00
  CG2D2O    NG311   HGPAM1     5   123.000000   326.352000   0.00000000         0.00
   CG2N1    NG311    CG314     5   130.862800   396.224800   0.00000000         0.00
   CG2N1    NG311    CG331     5   106.000000   359.824000   0.00000000         0.00
   CG2N1    NG311   HGPAM1     5   106.000000   376.560000   0.00000000         0.00
   CG2N2    NG311   CG2R61     5   105.020800   457.143840   0.00000000         0.00
   CG2N2    NG311    CG321     5   106.000000   359.824000   0.00000000         0.00
   CG2N2    NG311   HGPAM1     5   106.000000   376.560000   0.00000000         0.00
  CG2R51    NG311    CG311     5   113.000000   460.240000   0.00000000         0.00
  CG2R51    NG311   HGPAM1     5   115.000000   376.560000   0.00000000         0.00
  CG2R53    NG311    CG321     5   113.000000   460.240000   0.00000000         0.00
  CG2R53    NG311    CG331     5   113.000000   460.240000   0.00000000         0.00
  CG2R53    NG311   HGPAM1     5   115.000000   376.560000   0.00000000         0.00
  CG2R61    NG311   CG2R61     5   109.000000   334.720000   0.00000000         0.00
  CG2R61    NG311   CG2R62     5   114.440000   291.039040   0.00000000         0.00
  CG2R61    NG311   CG2R64     5   114.440000   291.039040   0.00000000         0.00
  CG2R61    NG311   CG2RC0     5   109.000000   334.720000   0.00000000         0.00
  CG2R61    NG311    CG301     5   113.000000   460.240000   0.00000000         0.00
  CG2R61    NG311    CG311     5   113.000000   460.240000   0.00000000         0.00
  CG2R61    NG311    CG321     5   113.000000   460.240000   0.00000000         0.00
  CG2R61    NG311   CG3C50     5   108.835400   178.824160   0.00000000         0.00
  CG2R61    NG311    SG3O2     5   115.000000   292.880000   0.00000000         0.00
  CG2R61    NG311    SG3O3     5   115.000000   292.880000   0.00000000         0.00
  CG2R61    NG311     HGP1     5   114.000000   334.720000   0.00000000         0.00
  CG2R61    NG311   HGPAM1     5   115.000000   376.560000   0.00000000         0.00
  CG2R62    NG311    CG311     5   113.000000   460.240000   0.00000000         0.00
  CG2R62    NG311    CG331     5   113.000000   460.240000   0.00000000         0.00
  CG2R62    NG311   HGPAM1     5   111.490000   367.271520   0.00000000         0.00
  CG2R64    NG311    CG311     5   114.000000   384.928000   0.00000000         0.00
  CG2R64    NG311    CG321     5   114.000000   384.928000   0.00000000         0.00
  CG2R64    NG311    CG331     5   114.000000   384.928000   0.00000000         0.00
  CG2R64    NG311    OG311     5   101.713400   792.031200   0.00000000         0.00
  CG2R64    NG311     HGP1     5   113.500000   364.008000   0.00000000         0.00
  CG2R64    NG311   HGPAM1     5   113.500000   364.008000   0.00000000         0.00
  CG2RC0    NG311   HGPAM1     5   115.000000   376.560000   0.00000000         0.00
   CG301    NG311    CG321     5   109.600000   338.904000   0.00000000         0.00
   CG301    NG311    CG331     5   112.200000   401.664000   0.23500000     31798.40
   CG301    NG311   HGPAM1     5   111.000000   292.880000   0.00000000         0.00
   CG311    NG311    CG311     5   109.600000   338.904000   0.00000000         0.00
   CG311    NG311    CG314     5   109.950000   355.891040   0.00000000         0.00
   CG311    NG311    CG321     5   109.600000   338.904000   0.00000000         0.00
   CG311    NG311    CG331     5   112.200000   401.664000   0.23500000     31798.40
   CG311    NG311   OG3R60     5   107.329600   537.141920   0.00000000         0.00
   CG311    NG311     HGP1     5   111.000000   384.928000   0.00000000         0.00
   CG311    NG311   HGPAM1     5   111.000000   292.880000   0.00000000         0.00
   CG314    NG311    CG321     5   109.950000   355.891040   0.00000000         0.00
   CG314    NG311    CG331     5   109.950000   355.891040   0.00000000         0.00
   CG314    NG311   HGPAM1     5   111.880000   351.204960   0.20127000      4184.00
   CG321    NG311    CG321     5   109.600000   338.904000   0.00000000         0.00
   CG321    NG311    CG331     5   112.200000   401.664000   0.23500000     31798.40
   CG321    NG311   CG3C31     5   111.000000   585.760000   0.23100000     33472.00
   CG321    NG311   CG3C41     5   111.000000   585.760000   0.23100000     33472.00
   CG321    NG311   CG3C50     5   111.000000   585.760000   0.23100000     33472.00
   CG321    NG311   CG3C51     5   111.000000   585.760000   0.23100000     33472.00
   CG321    NG311   CG3RC1     5   111.000000   585.760000   0.23100000     33472.00
   CG321    NG311    SG3O2     5   115.000000   502.080000   0.00000000         0.00
   CG321    NG311     HGP1     5   111.000000   384.928000   0.00000000         0.00
   CG321    NG311   HGPAM1     5   111.000000   292.880000   0.00000000         0.00
   CG331    NG311   CG3C51     5   112.200000   753.120000   0.23600000     29288.00
   CG331    NG311    SG3O2     5   114.000000   569.024000   0.00000000         0.00
   CG331    NG311     HGP1     5   111.500000   353.966400   0.00000000         0.00
   CG331    NG311   HGPAM1     5   104.000000   376.560000   0.00000000         0.00
  CG3AM1    NG311   CG3AM1     5   112.200000   338.904000   0.24217000      4184.00
  CG3AM1    NG311   HGPAM1     5   108.900000   352.292800   0.20292000      4184.00
  CG3C31    NG311   HGPAM1     5   111.000000   418.400000   0.00000000         0.00
  CG3C41    NG311   CG3C41     5   111.124700   589.190880   0.00000000         0.00
  CG3C41    NG311   HGPAM1     5   115.545600   450.700480   0.00000000         0.00
  CG3C50    NG311   HGPAM1     5   111.000000   418.400000   0.00000000         0.00
  CG3C51    NG311   HGPAM1     5   111.000000   418.400000   0.00000000         0.00
  CG3RC1    NG311   HGPAM1     5   111.000000   418.400000   0.00000000         0.00
   OG311    NG311     HGP1     5    97.553300   538.982880   0.00000000         0.00
  OG3R60    NG311     HGP1     5   103.145600   506.682400   0.00000000         0.00
   SG3O2    NG311     HGP1     5   113.200000   353.966400   0.00000000         0.00
   SG3O3    NG311     HGP1     5   113.200000   353.966400   0.00000000         0.00
  CG2D1O    NG321   HGPAM2     5   113.000000   460.240000   0.00000000         0.00
  CG2D2O    NG321   HGPAM2     5   113.000000   460.240000   0.00000000         0.00
   CG2N1    NG321   HGPAM2     5   108.000000   460.240000   0.00000000         0.00
   CG2N2    NG321   HGPAM2     5   115.800000   418.400000   0.00000000         0.00
  CG2R51    NG321   HGPAM2     5   113.979300   342.753280   0.00000000         0.00
  CG2R53    NG321   HGPAM2     5   115.061200   352.627520   0.00000000         0.00
   CG301    NG321   HGPAM2     5   112.100000   343.088000   0.00000000         0.00
   CG311    NG321   HGPAM2     5   112.100000   343.088000   0.00000000         0.00
   CG321    NG321   HGPAM2     5   112.100000   343.088000   0.00000000         0.00
  CG3AM2    NG321   HGPAM2     5   112.100000   343.088000   0.00000000         0.00
  CG3C31    NG321   HGPAM2     5   112.100000   343.088000   0.00000000         0.00
  CG3C41    NG321   HGPAM2     5   112.100000   343.088000   0.00000000         0.00
  CG3C50    NG321   HGPAM2     5   115.276600   456.056000   0.00000000         0.00
  CG3C51    NG321   HGPAM2     5   112.100000   343.088000   0.00000000         0.00
  CG3RC1    NG321   HGPAM2     5   112.100000   343.088000   0.00000000         0.00
   OG301    NG321     HGP1     5   102.370000   496.138720   0.00000000         0.00
   SG3O2    NG321     HGP1     5   115.000000   410.032000   0.00000000         0.00
    HGP1    NG321     HGP1     5   110.000000   317.984000   0.00000000         0.00
  HGPAM2    NG321   HGPAM2     5   105.850000   351.456000   0.00000000         0.00
  HGPAM3    NG331   HGPAM3     5   107.100000   347.272000   0.00000000         0.00
  CG251O   NG3C51   CG3C52     5   104.135100   310.620160   0.00000000         0.00
  CG251O   NG3C51     HGP1     5   116.161400   317.732960   0.00000000         0.00
  CG252O   NG3C51   CG3C52     5   104.135100   310.620160   0.00000000         0.00
  CG252O   NG3C51     HGP1     5   116.161400   317.732960   0.00000000         0.00
  CG2D1O   NG3C51   CG2RC0     5   113.277300   406.684800   0.00000000         0.00
  CG2D1O   NG3C51   CG3C52     5   112.568600   410.952480   0.00000000         0.00
  CG2D2O   NG3C51   CG2RC0     5   113.277300   406.684800   0.00000000         0.00
  CG2D2O   NG3C51   CG3C52     5   112.568600   410.952480   0.00000000         0.00
  CG2R51   NG3C51   CG2R61     5   114.789700   474.549280   0.00000000         0.00
  CG2R51   NG3C51    CG331     5   110.116300   384.593280   0.00000000         0.00
  CG2R51   NG3C51   CG3C52     5   104.800000   376.560000   0.00000000         0.00
  CG2R51   NG3C51    SG3O3     5    85.504500   323.172160   0.00000000         0.00
  CG2R51   NG3C51     HGP1     5   113.900000   359.824000   0.00000000         0.00
  CG2R53   NG3C51    CG311     5    99.878500   357.480960   0.00000000         0.00
  CG2R53   NG3C51    CG321     5   100.061500   316.143040   0.00000000         0.00
  CG2R53   NG3C51    CG331     5   106.413500   529.694400   0.00000000         0.00
  CG2R53   NG3C51   CG3C50     5   107.000000   334.720000   0.00000000         0.00
  CG2R53   NG3C51   CG3C52     5   107.000000   334.720000   0.00000000         0.00
  CG2R53   NG3C51   OG3C51     5   104.014300   577.475680   0.00000000         0.00
  CG2R53   NG3C51     HGP1     5   115.600000   359.824000   0.00000000         0.00
  CG2R57   NG3C51    CG331     5   105.717900   373.296480   0.00000000         0.00
  CG2R57   NG3C51   CG3C52     5   104.800000   376.560000   0.00000000         0.00
  CG2R61   NG3C51   CG2RC0     5    96.291000   319.992320   0.00000000         0.00
  CG2R61   NG3C51   CG3C52     5   111.594900   417.897920   0.00000000         0.00
  CG2R62   NG3C51   CG2RC0     5   128.074000    62.006880   0.00000000         0.00
  CG2R62   NG3C51   CG3C51     5   110.267300   353.213280   0.00000000         0.00
  CG2R62   NG3C51   CG3C52     5   127.843000   434.633920   0.00000000         0.00
  CG2R64   NG3C51   CG2RC0     5   119.180000   333.297440   0.00000000         0.00
  CG2R64   NG3C51   CG3C50     5    99.270500   520.573280   0.00000000         0.00
  CG2R64   NG3C51   CG3C51     5    97.256400   284.763040   0.00000000         0.00
  CG2R64   NG3C51   CG3C52     5   109.754800   496.808160   0.00000000         0.00
  CG2RC0   NG3C51    CG311     5   102.183000   303.005280   0.00000000         0.00
  CG2RC0   NG3C51    CG321     5   106.528100   290.453280   0.00000000         0.00
  CG2RC0   NG3C51    CG331     5   112.052600   375.723200   0.00000000         0.00
  CG2RC0   NG3C51   CG3C50     5   106.900000   502.080000   0.00000000         0.00
  CG2RC0   NG3C51   CG3C51     5   106.900000   502.080000   0.00000000         0.00
  CG2RC0   NG3C51   CG3C52     5   106.900000   502.080000   0.00000000         0.00
  CG2RC0   NG3C51   CG3C53     5   114.896500   258.654880   0.00000000         0.00
  CG2RC0   NG3C51    SG3O2     5   114.521400   357.564640   0.00000000         0.00
  CG2RC0   NG3C51    SG3O3     5    97.024000   326.854080   0.00000000         0.00
  CG2RC0   NG3C51     HGP1     5   114.500000   343.088000   0.00000000         0.00
   CG311   NG3C51   CG3C52     5   113.250000   588.103040   0.00000000         0.00
   CG311   NG3C51   OG3C51     5   101.482300   601.240800   0.00000000         0.00
   CG321   NG3C51   CG3C50     5   110.010000   380.409280   0.00000000         0.00
   CG321   NG3C51   CG3C51     5   110.010000   380.409280   0.00000000         0.00
   CG321   NG3C51   CG3C52     5   113.250000   588.103040   0.00000000         0.00
   CG331   NG3C51   CG3C41     5   105.571700   332.711680   0.00000000         0.00
   CG331   NG3C51   CG3C50     5   110.010000   380.409280   0.00000000         0.00
   CG331   NG3C51   CG3C51     5   110.010000   380.409280   0.00000000         0.00
   CG331   NG3C51   CG3C52     5   113.250000   588.103040   0.00000000         0.00
   CG331   NG3C51   CG3C54     5   108.386100   328.862400   0.00000000         0.00
   CG331   NG3C51   CG3RC1     5   113.250000   588.103040   0.00000000         0.00
   CG331   NG3C51   NG2R50     5   104.654500   551.283840   0.00000000         0.00
   CG331   NG3C51    NG3P2     5   107.055300   658.394240   0.00000000         0.00
   CG331   NG3C51   OG3C51     5   102.663500   633.290240   0.00000000         0.00
  CG3C41   NG3C51   CG3C52     5   113.250000   588.103040   0.00000000         0.00
  CG3C50   NG3C51   CG3C50     5   103.700000  1171.520000   0.00000000         0.00
  CG3C50   NG3C51   CG3C52     5   103.700000  1171.520000   0.00000000         0.00
  CG3C50   NG3C51   NG2R50     5   109.000000   393.296000   0.00000000         0.00
  CG3C50   NG3C51    OG312     5   109.570000   481.662080   0.00000000         0.00
  CG3C50   NG3C51    SG3O2     5   107.755500   773.537920   0.00000000         0.00
  CG3C50   NG3C51     HGP1     5   112.000000   359.824000   0.00000000         0.00
  CG3C51   NG3C51   CG3C51     5   115.554900   463.670880   0.00000000         0.00
  CG3C51   NG3C51   CG3C52     5   103.700000  1171.520000   0.00000000         0.00
  CG3C51   NG3C51   NG2R50     5   109.000000   393.296000   0.00000000         0.00
  CG3C51   NG3C51   NG2R53     5    91.615200   652.704000   0.00000000         0.00
  CG3C51   NG3C51   OG3C51     5   101.450000  1099.136800   0.00000000         0.00
  CG3C51   NG3C51    SG3O2     5   104.158500   690.276320   0.00000000         0.00
  CG3C51   NG3C51     HGP1     5   112.000000   359.824000   0.00000000         0.00
  CG3C52   NG3C51   CG3C52     5   103.700000  1171.520000   0.00000000         0.00
  CG3C52   NG3C51   CG3C54     5   104.100000   560.656000   0.00000000         0.00
  CG3C52   NG3C51   NG2R50     5   109.000000   393.296000   0.00000000         0.00
  CG3C52   NG3C51   NG2R53     5    99.027800   606.847360   0.00000000         0.00
  CG3C52   NG3C51    NG3P2     5   103.900000   393.296000   0.00000000         0.00
  CG3C52   NG3C51    OG312     5   102.420000   393.965440   0.00000000         0.00
  CG3C52   NG3C51   OG3C51     5    99.860000   845.168000   0.00000000         0.00
  CG3C52   NG3C51    SG3O2     5   113.571500   776.801440   0.00000000         0.00
  CG3C52   NG3C51     HGP1     5   112.000000   359.824000   0.00000000         0.00
  CG3C53   NG3C51     HGP1     5   109.250000   418.400000   0.00000000         0.00
  CG3C54   NG3C51     HGP1     5   109.250000   418.400000   0.00000000         0.00
  CG3RC1   NG3C51   NG2R50     5   109.000000   393.296000   0.00000000         0.00
  NG2R50   NG3C51     HGP1     5   103.600000   418.400000   0.00000000         0.00
   NG3P2   NG3C51     HGP1     5   100.600000   468.608000   0.00000000         0.00
  OG3C51   NG3C51     HGP1     5   103.640000   545.677280   0.00000000         0.00
   SG3O2   NG3C51     HGP1     5   116.487700   363.924320   0.00000000         0.00
   SG3O3   NG3C51     HGP1     5   116.318300   388.191520   0.00000000         0.00
   CG2N2    NG3N1    NG2D1     5   110.887400   531.535360   0.00000000         0.00
   CG2N2    NG3N1     HGP1     5   111.737800   427.521120   0.00000000         0.00
  CG2R53    NG3N1   CG2R53     5   101.793100  1358.544800   0.00000000         0.00
  CG2R53    NG3N1    NG3N1     5   112.000000   502.080000   0.00000000         0.00
  CG2R61    NG3N1    NG3N1     5   112.000000   502.080000   0.00000000         0.00
  CG2R61    NG3N1     HGP1     5   115.000000   435.136000   0.00000000         0.00
  CG2R62    NG3N1    NG3N1     5   112.000000   502.080000   0.00000000         0.00
  CG2R62    NG3N1     HGP1     5   115.000000   435.136000   0.00000000         0.00
  CG2R64    NG3N1    NG3N1     5   112.000000   502.080000   0.00000000         0.00
  CG2R64    NG3N1     HGP1     5   115.000000   435.136000   0.00000000         0.00
  CG2R71    NG3N1    NG2S1     5   109.061200   398.316800   0.00000000         0.00
  CG2R71    NG3N1     HGP1     5   115.000000   435.136000   0.00000000         0.00
   CG311    NG3N1    NG3N1     5   102.135000   557.894560   0.00000000         0.00
   CG311    NG3N1     HGP1     5   111.155000   485.427680   0.00000000         0.00
   CG321    NG3N1    CG331     5   109.566400   510.448000   0.00000000         0.00
   CG321    NG3N1    NG3N1     5   112.341800   566.680960   0.00000000         0.00
   CG331    NG3N1    NG3N1     5   105.616200   493.544640   0.00000000         0.00
  CG3C51    NG3N1    NG3N1     5   104.487000   513.795200   0.00000000         0.00
  CG3C51    NG3N1     HGP1     5   102.914600   419.487840   0.00000000         0.00
  CG3RC1    NG3N1    NG2D1     5   106.254900   362.585440   0.00000000         0.00
  CG3RC1    NG3N1     HGP1     5   111.347000   360.995520   0.00000000         0.00
   NG2D1    NG3N1     HGP1     5   102.120300   432.207200   0.00000000         0.00
  NG2R51    NG3N1     HGP1     5   109.391700   193.468160   0.00000000         0.00
  NG2R52    NG3N1     HGP1     5   107.349800   380.409280   0.00000000         0.00
   NG2S0    NG3N1     HGP1     5   105.222700   476.557600   0.00000000         0.00
   NG2S1    NG3N1     HGP1     5   105.369700   421.245120   0.00000000         0.00
   NG3N1    NG3N1     HGP1     5   102.000000   460.240000   0.00000000         0.00
    HGP1    NG3N1     HGP1     5   102.000000   418.400000   0.00000000         0.00
  CG2R53    NG3P0    CG324     5   105.105400   401.329280   0.00000000         0.00
  CG2R53    NG3P0   CG3C53     5   114.582000   401.664000   0.00000000         0.00
  CG2R61    NG3P0    CG334     5    93.536700   558.898720   0.00000000         0.00
   CG301    NG3P0    CG334     5   101.503200   601.826560   0.00000000         0.00
   CG314    NG3P0    CG314     5   109.500000   502.080000   0.24660000     21756.80
   CG314    NG3P0    CG324     5   109.500000   502.080000   0.24660000     21756.80
   CG314    NG3P0    CG334     5   109.500000   502.080000   0.24660000     21756.80
   CG314    NG3P0    OG312     5   112.000000   669.440000   0.00000000         0.00
   CG324    NG3P0    CG324     5   109.500000   502.080000   0.24660000     21756.80
   CG324    NG3P0    CG334     5   109.500000   502.080000   0.24660000     21756.80
   CG324    NG3P0   CG3C53     5   109.500000   502.080000   0.24660000     21756.80
   CG324    NG3P0    OG312     5   112.000000   669.440000   0.00000000         0.00
   CG334    NG3P0    CG334     5   109.500000   502.080000   0.24660000     21756.80
   CG334    NG3P0   CG3C54     5   109.500000   502.080000   0.24660000     21756.80
   CG334    NG3P0   CG3RC1     5   109.138400   613.625440   0.00000000         0.00
   CG334    NG3P0    OG311     5   100.000000   577.392000   0.00000000         0.00
   CG334    NG3P0    OG312     5   112.000000   669.440000   0.00000000         0.00
  CG3C54    NG3P0   CG3C54     5   110.106000   608.102560   0.00000000         0.00
  CG3C54    NG3P0   CG3RC1     5   105.180500   612.621280   0.00000000         0.00
  CG2D1O    NG3P1    CG324     5   116.305500   291.373760   0.00000000         0.00
  CG2D1O    NG3P1     HGP2     5   108.649800   334.385280   0.00000000         0.00
  CG2D2O    NG3P1    CG324     5   116.305500   291.373760   0.00000000         0.00
  CG2D2O    NG3P1     HGP2     5   108.649800   334.385280   0.00000000         0.00
  CG2R51    NG3P1    CG334     5   110.812400   336.560960   0.00000000         0.00
  CG2R51    NG3P1   CG3C54     5   110.704900   629.775680   0.00000000         0.00
  CG2R51    NG3P1     HGP2     5   112.527000   346.435200   0.00000000         0.00
  CG2R61    NG3P1    CG314     5   110.554400   297.315040   0.00000000         0.00
  CG2R61    NG3P1    CG324     5   112.413400   326.603040   0.00000000         0.00
  CG2R61    NG3P1     HGP2     5   108.351400   399.655680   0.00000000         0.00
   CG301    NG3P1    CG324     5   111.242300   306.268800   0.00000000         0.00
   CG301    NG3P1    CG334     5   103.548600   326.937760   0.00000000         0.00
   CG301    NG3P1     HGP2     5   111.943400   379.070400   0.00000000         0.00
   CG314    NG3P1    CG314     5   115.200000   376.560000   0.00000000         0.00
   CG314    NG3P1    CG324     5   115.200000   376.560000   0.00000000         0.00
   CG314    NG3P1    CG334     5   109.500000   376.560000   0.00000000         0.00
   CG314    NG3P1     HGP2     5   110.800000   251.040000   0.20740000     22593.60
   CG324    NG3P1    CG324     5   115.200000   376.560000   0.00000000         0.00
   CG324    NG3P1    CG334     5   109.500000   376.560000   0.00000000         0.00
   CG324    NG3P1   CG3C31     5   115.274400   509.778560   0.00000000         0.00
   CG324    NG3P1   CG3C41     5   121.809800   331.121760   0.00000000         0.00
   CG324    NG3P1   CG3C50     5   113.779200   350.953920   0.00000000         0.00
   CG324    NG3P1   CG3C53     5   111.063400   387.940480   0.00000000         0.00
   CG324    NG3P1     HGP2     5   110.800000   251.040000   0.20740000     22593.60
   CG334    NG3P1    CG334     5   109.500000   376.560000   0.00000000         0.00
   CG334    NG3P1   CG3C31     5   110.855500   407.270560   0.00000000         0.00
   CG334    NG3P1   CG3C41     5   103.973800   309.281280   0.00000000         0.00
   CG334    NG3P1   CG3C54     5   109.500000   376.560000   0.00000000         0.00
   CG334    NG3P1   CG3RC1     5   107.603400   415.554880   0.00000000         0.00
   CG334    NG3P1     HGP2     5   110.800000   251.040000   0.20740000     22593.60
  CG3C31    NG3P1     HGP2     5   112.294900   390.785600   0.00000000         0.00
  CG3C41    NG3P1     HGP2     5   109.576900   302.670560   0.00000000         0.00
  CG3C50    NG3P1     HGP2     5   108.862200   377.313120   0.00000000         0.00
  CG3C53    NG3P1     HGP2     5   109.128300   375.555840   0.00000000         0.00
  CG3C54    NG3P1     HGP2     5   110.800000   251.040000   0.20740000     22593.60
  CG3RC1    NG3P1   CG3RC1     5   107.274200   587.015200   0.00000000         0.00
  CG3RC1    NG3P1     HGP2     5   119.352600   290.453280   0.00000000         0.00
  CG2D1O    NG3P2    CG324     5   106.816200   327.272480   0.00000000         0.00
  CG2D1O    NG3P2     HGP2     5   112.047000   338.987680   0.00000000         0.00
  CG2D2O    NG3P2    CG324     5   106.816200   327.272480   0.00000000         0.00
  CG2D2O    NG3P2     HGP2     5   112.047000   338.987680   0.00000000         0.00
  CG2R51    NG3P2   CG3C54     5   107.000000   711.280000   0.00000000         0.00
  CG2R51    NG3P2   NG3C51     5   101.172100   803.830080   0.00000000         0.00
  CG2R51    NG3P2     HGP2     5   112.000000   317.984000   0.00000000         0.00
   CG301    NG3P2    CG314     5   113.416100   413.379200   0.00000000         0.00
   CG301    NG3P2     HGP2     5   113.924000   640.235680   0.00000000         0.00
   CG314    NG3P2    CG314     5   115.200000   376.560000   0.00000000         0.00
   CG314    NG3P2    CG324     5   115.200000   376.560000   0.00000000         0.00
   CG314    NG3P2   CG3C50     5   107.044100   269.533280   0.00000000         0.00
   CG314    NG3P2     HGP2     5   110.800000   251.040000   0.20740000     22593.60
   CG324    NG3P2    CG324     5   115.200000   334.720000   0.00000000         0.00
   CG324    NG3P2    CG334     5   115.200000   418.400000   0.00000000         0.00
   CG324    NG3P2   CG3C53     5   115.200000   384.928000   0.00000000         0.00
   CG324    NG3P2     HGP2     5   110.800000   251.040000   0.20740000     22593.60
   CG334    NG3P2    CG334     5   115.200000   334.720000   0.00000000         0.00
   CG334    NG3P2   CG3C53     5   115.200000   384.928000   0.00000000         0.00
   CG334    NG3P2     HGP2     5   110.800000   251.040000   0.20740000     22593.60
  CG3C31    NG3P2   CG3C31     5    49.255900   362.418080   0.00000000         0.00
  CG3C31    NG3P2     HGP2     5   107.288700   160.832960   0.00000000         0.00
  CG3C41    NG3P2   CG3C41     5    90.404700   420.157280   0.00000000         0.00
  CG3C41    NG3P2     HGP2     5   107.096000   453.294560   0.00000000         0.00
  CG3C50    NG3P2     HGP2     5   111.940500   372.878080   0.00000000         0.00
  CG3C53    NG3P2   CG3C53     5   111.000000   836.800000   0.00000000         0.00
  CG3C53    NG3P2   CG3C54     5   111.000000   836.800000   0.00000000         0.00
  CG3C53    NG3P2     HGP2     5   109.500000   276.144000   0.20560000      3347.20
  CG3C54    NG3P2   CG3C54     5   113.000000   870.272000   0.00000000         0.00
  CG3C54    NG3P2   NG3C51     5   114.200000  1129.680000   0.00000000         0.00
  CG3C54    NG3P2     HGP2     5   109.500000   276.144000   0.20560000      3347.20
  CG3RC1    NG3P2   CG3RC1     5   108.985500   789.520800   0.00000000         0.00
  CG3RC1    NG3P2     HGP2     5   109.517300   317.816640   0.00000000         0.00
  NG3C51    NG3P2     HGP2     5   106.300000   351.456000   0.00000000         0.00
    HGP2    NG3P2     HGP2     5   107.500000   426.768000   0.00000000         0.00
   CG301    NG3P3     HGP2     5   105.918800   399.320960   0.00000000         0.00
   CG314    NG3P3     HGP2     5   109.500000   251.040000   0.20740000     16736.00
   CG324    NG3P3     HGP2     5   109.500000   251.040000   0.20740000     16736.00
   CG334    NG3P3     HGP2     5   109.500000   251.040000   0.20740000     16736.00
  CG3C31    NG3P3     HGP2     5   113.887900   352.041760   0.00000000         0.00
  CG3C41    NG3P3     HGP2     5   113.269300   317.816640   0.00000000         0.00
  CG3C50    NG3P3     HGP2     5   111.782200   346.100480   0.00000000         0.00
  CG3C53    NG3P3     HGP2     5   109.500000   251.040000   0.20740000     16736.00
  CG3RC1    NG3P3     HGP2     5   111.343500   329.866560   0.00000000         0.00
    HGP2    NG3P3     HGP2     5   109.500000   368.192000   0.00000000         0.00
  CG2R51   OG2R50   CG2R51     5   106.000000   836.800000   0.00000000         0.00
  CG2R51   OG2R50   CG2R53     5   104.000000  1171.520000   0.00000000         0.00
  CG2R51   OG2R50   CG2R57     5   106.000000   836.800000   0.00000000         0.00
  CG2R51   OG2R50   CG2RC0     5   104.000000   418.400000   0.00000000         0.00
  CG2R51   OG2R50   NG2R50     5   108.500000  1255.200000   0.00000000         0.00
  CG2R53   OG2R50   CG2R53     5   113.433600  1060.560320   0.00000000         0.00
  CG2R53   OG2R50   CG2R57     5   104.000000  1171.520000   0.00000000         0.00
  CG2R53   OG2R50   CG2RC0     5   104.000000  1171.520000   0.00000000         0.00
  CG2R53   OG2R50   CG2RC7     5   104.000000   418.400000   0.00000000         0.00
  CG2R53   OG2R50   NG2R50     5   109.300000  1380.720000   0.00000000         0.00
  CG2R53   OG2R50   NG2R51     5   101.005600   801.905440   0.00000000         0.00
  CG2R57   OG2R50   CG2RC0     5   104.000000   418.400000   0.00000000         0.00
  CG2RC0   OG2R50   CG2RC0     5   104.000000   418.400000   0.00000000         0.00
  CG2RC0   OG2R50   NG2R50     5   108.500000  1255.200000   0.00000000         0.00
  NG2R50   OG2R50   NG2R50     5   113.604400   884.079200   0.00000000         0.00
  CG2D1O    OG301    CG321     5   109.000000   443.504000   0.00000000         0.00
  CG2D1O    OG301    CG331     5   109.000000   443.504000   0.00000000         0.00
  CG2D2O    OG301    CG321     5   109.000000   443.504000   0.00000000         0.00
  CG2D2O    OG301    CG331     5   109.000000   443.504000   0.00000000         0.00
   CG2N2    OG301    CG331     5    94.056700   265.265600   0.00000000         0.00
  CG2R52    OG301    CG331     5   108.000000   543.920000   0.00000000         0.00
  CG2R53    OG301    CG331     5   108.000000   543.920000   0.00000000         0.00
  CG2R61    OG301   CG2R61     5   120.000000  1548.080000   0.00000000         0.00
  CG2R61    OG301    CG311     5   108.000000   543.920000   0.00000000         0.00
  CG2R61    OG301    CG321     5   108.000000   543.920000   0.00000000         0.00
  CG2R61    OG301    CG331     5   108.000000   543.920000   0.00000000         0.00
  CG2R61    OG301   CG3C41     5   108.000000   543.920000   0.00000000         0.00
  CG2R62    OG301    CG321     5   108.000000   543.920000   0.00000000         0.00
  CG2R62    OG301    CG331     5   104.000000   543.920000   0.00000000         0.00
  CG2R64    OG301    CG331     5   104.000000   543.920000   0.00000000         0.00
   CG301    OG301    CG321     5   109.700000   794.960000   0.00000000         0.00
   CG301    OG301    CG331     5   109.700000   794.960000   0.00000000         0.00
   CG311    OG301    CG321     5   109.700000   794.960000   0.00000000         0.00
   CG311    OG301    CG331     5   109.700000   794.960000   0.00000000         0.00
   CG311    OG301   CG3C51     5   107.000000   543.920000   0.00000000         0.00
   CG311    OG301    NG301     5   104.740000   601.575520   0.00000000         0.00
   CG311    OG301    OG311     5   104.000000   602.496000   0.00000000         0.00
   CG321    OG301    CG321     5   109.700000   794.960000   0.00000000         0.00
   CG321    OG301    CG331     5   109.700000   794.960000   0.00000000         0.00
   CG321    OG301    NG2D1     5   104.200000   453.294560   0.00000000         0.00
   CG321    OG301    NG2P1     5   102.860000   460.072640   0.00000000         0.00
   CG321    OG301    NG2S0     5   108.776900   648.938400   0.00000000         0.00
   CG321    OG301    NG321     5   104.740000   601.575520   0.00000000         0.00
   CG331    OG301    CG331     5   109.700000   794.960000   0.00000000         0.00
   CG331    OG301   CG3C31     5   107.000000   543.920000   0.00000000         0.00
   CG331    OG301   CG3C51     5   107.000000   543.920000   0.00000000         0.00
   CG331    OG301    NG2D1     5   104.200000   453.294560   0.00000000         0.00
   CG331    OG301   NG2R61     5   104.086100   463.168800   0.00000000         0.00
   CG331    OG301    OG311     5   104.000000   602.496000   0.00000000         0.00
  CG3C51    OG301   CG3C51     5   107.000000   460.240000   0.00000000         0.00
  NG2R51    OG301    OG311     5   105.670000   511.619520   0.00000000         0.00
   OG311    OG301    SG301     5   109.650000   772.366400   0.00000000         0.00
   CG2O2    OG302   CG2R61     5   102.889200   324.511040   0.00000000         0.00
   CG2O2    OG302    CG301     5   109.600000   334.720000   0.22651000     25104.00
   CG2O2    OG302    CG311     5   109.600000   334.720000   0.22651000     25104.00
   CG2O2    OG302    CG321     5   109.600000   334.720000   0.22651000     25104.00
   CG2O2    OG302    CG331     5   109.600000   334.720000   0.22651000     25104.00
   CG2O6    OG302    CG321     5   111.000000   334.720000   0.00000000         0.00
   CG2O6    OG302    CG331     5   111.000000   334.720000   0.00000000         0.00
   CG2O2    OG303      PG1     5   126.800000   411.705600   0.23106000      1481.14
   CG2O2    OG303      PG2     5   135.670000   119.076640   0.30104000      8769.66
  CG2R61    OG303      PG1     5   120.000000   753.120000   0.23000000     16736.00
  CG2R61    OG303    SG3O1     5   108.000000   276.144000   0.00000000         0.00
  CG2R61    OG303    SG3O2     5   108.000000   276.144000   0.00000000         0.00
   CG301    OG303      PG1     5   120.000000   167.360000   0.23300000     29288.00
   CG311    OG303      PG0     5   120.000000   167.360000   0.23300000     29288.00
   CG311    OG303      PG2     5   120.000000   167.360000   0.23300000     29288.00
   CG311    OG303    SG3O1     5   109.000000   125.520000   0.19000000     22593.60
   CG321    OG303      PG0     5   120.000000   167.360000   0.23300000     29288.00
   CG321    OG303      PG1     5   120.000000   167.360000   0.23300000     29288.00
   CG321    OG303      PG2     5   120.000000   167.360000   0.23300000     29288.00
   CG321    OG303    SG3O1     5   109.000000   125.520000   0.19000000     22593.60
   CG321    OG303    SG3O2     5   113.000000   401.664000   0.00000000         0.00
   CG331    OG303      PG0     5   120.000000   167.360000   0.23300000     29288.00
   CG331    OG303      PG1     5   120.000000   167.360000   0.23300000     29288.00
   CG331    OG303      PG2     5   120.000000   167.360000   0.23300000     29288.00
   CG331    OG303    SG3O1     5   109.000000   125.520000   0.19000000     22593.60
   CG331    OG303    SG3O2     5   113.000000   401.664000   0.00000000         0.00
  CG3C51    OG303      PG1     5   120.000000   167.360000   0.23300000     29288.00
  CG3C51    OG303      PG2     5   120.000000   167.360000   0.23300000     29288.00
     PG0    OG304      PG0     5   143.000000   376.560000   0.32500000     33472.00
     PG1    OG304      PG1     5   143.000000   376.560000   0.32500000     33472.00
     PG1    OG304      PG2     5   139.500000   376.560000   0.30500000     33472.00
  CG2D1O    OG311     HGP1     5   105.720000   549.191840   0.00000000         0.00
  CG2D2O    OG311     HGP1     5   105.720000   549.191840   0.00000000         0.00
   CG2O2    OG311     HGP1     5   115.000000   460.240000   0.00000000         0.00
   CG2O6    OG311     HGP1     5   116.000000   510.448000   0.00000000         0.00
  CG2R51    OG311     HGP1     5   108.000000   543.920000   0.00000000         0.00
  CG2R61    OG311     HGP1     5   108.000000   543.920000   0.00000000         0.00
  CG2R62    OG311     HGP1     5   108.000000   552.288000   0.19280000     33472.00
   CG301    OG311     HGP1     5   106.000000   418.400000   0.00000000         0.00
   CG311    OG311     HGP1     5   106.000000   418.400000   0.00000000         0.00
   CG314    OG311     HGP1     5   107.150500   379.154080   0.00000000         0.00
   CG321    OG311     HGP1     5   106.000000   418.400000   0.00000000         0.00
   CG331    OG311     HGP1     5   106.000000   481.160000   0.00000000         0.00
  CG3C41    OG311     HGP1     5   109.000000   418.400000   0.00000000         0.00
  CG3C50    OG311     HGP1     5   109.000000   418.400000   0.00000000         0.00
  CG3C51    OG311     HGP1     5   109.000000   418.400000   0.00000000         0.00
  CG3RC1    OG311     HGP1     5   109.000000   418.400000   0.00000000         0.00
   NG2P1    OG311     HGP1     5    97.725200   444.424480   0.00000000         0.00
  NG2R51    OG311     HGP1     5   101.858100   494.046720   0.00000000         0.00
  NG2R52    OG311     HGP1     5   104.265700   503.586240   0.00000000         0.00
  NG2R61    OG311     HGP1     5    98.890000   543.836320   0.00000000         0.00
   NG2S0    OG311     HGP1     5   100.670000   544.003680   0.00000000         0.00
   NG2S1    OG311     HGP1     5    98.890000   543.836320   0.00000000         0.00
   NG301    OG311     HGP1     5    99.950800   468.691680   0.00000000         0.00
   NG311    OG311     HGP1     5    98.869100   467.771200   0.00000000         0.00
   NG3P0    OG311     HGP1     5   101.500000   502.080000   0.00000000         0.00
   OG301    OG311     HGP1     5    98.300000   510.448000   0.00000000         0.00
     PG0    OG311     HGP1     5   115.000000   251.040000   0.23500000     33472.00
     PG1    OG311     HGP1     5   115.000000   251.040000   0.23500000     33472.00
     PG2    OG311     HGP1     5   115.000000   251.040000   0.23500000     33472.00
   SG301    OG311     HGP1     5   105.260000   288.863360   0.21906000     33463.63
   SG3O2    OG311     HGP1     5   109.538600   377.815200   0.00000000         0.00
   BG201    OG311     HGP1     5   110.000000   686.176000   0.00000000         0.00
  CG3C31   OG3C31   CG3C31     5    97.000000   421.328800   0.00000000         0.00
  CG3RC1   OG3C31   CG3RC1     5    60.800000   753.120000   0.00000000         0.00
  CG251O   OG3C51   CG2R53     5   104.000000   711.280000   0.00000000         0.00
  CG251O   OG3C51   CG3C50     5   104.400000  1046.000000   0.00000000         0.00
  CG252O   OG3C51   CG2R53     5   104.000000   711.280000   0.00000000         0.00
  CG252O   OG3C51   CG3C50     5   104.400000  1046.000000   0.00000000         0.00
   CG2O4   OG3C51   CG3C41     5    95.000000   744.752000   0.00000000         0.00
  CG2R51   OG3C51   CG2R53     5   104.000000   711.280000   0.00000000         0.00
  CG2R51   OG3C51   CG3C50     5   104.400000  1046.000000   0.00000000         0.00
  CG2R51   OG3C51   CG3C51     5   104.400000  1046.000000   0.00000000         0.00
  CG2R51   OG3C51   CG3C52     5   104.400000  1046.000000   0.00000000         0.00
  CG2R51   OG3C51   NG3C51     5   102.360000   982.152160   0.00000000         0.00
  CG2R53   OG3C51   CG2R53     5   101.058100  1132.023040   0.00000000         0.00
  CG2R53   OG3C51   CG2RC7     5   104.839400   789.186080   0.00000000         0.00
  CG2R53   OG3C51   CG3C41     5   106.356000   676.887520   0.00000000         0.00
  CG2R53   OG3C51   CG3C50     5   107.100000   753.120000   0.00000000         0.00
  CG2R53   OG3C51   CG3C51     5   107.100000   753.120000   0.00000000         0.00
  CG2R53   OG3C51   CG3C52     5   107.100000   753.120000   0.00000000         0.00
  CG2R53   OG3C51   CG3RC1     5   106.804900   684.586080   0.00000000         0.00
  CG2RC0   OG3C51   CG3C50     5   108.050000   635.968000   0.00000000         0.00
  CG2RC0   OG3C51   CG3C51     5   108.050000   635.968000   0.00000000         0.00
  CG2RC0   OG3C51   CG3C52     5   108.050000   635.968000   0.00000000         0.00
  CG3C41   OG3C51   CG3C41     5    89.120000   460.240000   0.00000000         0.00
  CG3C41   OG3C51   CG3C52     5   110.319600   849.352000   0.00000000         0.00
  CG3C41   OG3C51   NG3C51     5    94.883600   450.282080   0.00000000         0.00
  CG3C50   OG3C51   CG3C50     5   122.443400   774.960480   0.00000000         0.00
  CG3C50   OG3C51   CG3C51     5   111.000000   794.960000   0.00000000         0.00
  CG3C50   OG3C51   CG3C52     5   111.000000   794.960000   0.00000000         0.00
  CG3C50   OG3C51   CG3RC1     5   107.868400   841.737120   0.00000000         0.00
  CG3C50   OG3C51   NG2R50     5   106.291800  1023.490080   0.00000000         0.00
  CG3C51   OG3C51   CG3C51     5   111.000000   794.960000   0.00000000         0.00
  CG3C51   OG3C51   CG3C52     5   111.000000   794.960000   0.00000000         0.00
  CG3C51   OG3C51   CG3C53     5   108.000000   920.480000   0.00000000         0.00
  CG3C51   OG3C51   CG3RC1     5   109.000000  1422.560000   0.00000000         0.00
  CG3C51   OG3C51   NG3C51     5   107.050000   795.964160   0.00000000         0.00
  CG3C52   OG3C51   CG3C52     5   111.000000   794.960000   0.00000000         0.00
  CG3C52   OG3C51   CG3RC1     5   109.000000  1422.560000   0.00000000         0.00
  CG3C52   OG3C51   NG3C51     5   101.921000   899.978400   0.00000000         0.00
  CG3C52   OG3C51    BG201     5   111.000000   794.960000   0.00000000         0.00
   CG301   OG3C61    CG301     5   109.700000   794.960000   0.00000000         0.00
   CG301   OG3C61    CG311     5   109.700000   794.960000   0.00000000         0.00
   CG301   OG3C61    CG321     5   109.700000   794.960000   0.00000000         0.00
   CG301   OG3C61    CG324     5   117.330300   521.326400   0.00000000         0.00
   CG301   OG3C61   CG3RC1     5   107.206600   477.310720   0.00000000         0.00
   CG311   OG3C61    CG311     5   109.700000   794.960000   0.00000000         0.00
   CG311   OG3C61    CG321     5   109.700000   794.960000   0.00000000         0.00
   CG311   OG3C61   CG3C41     5   109.700000   794.960000   0.00000000         0.00
   CG311   OG3C61   CG3C50     5   107.627100   507.268160   0.00000000         0.00
   CG311   OG3C61    NG2S0     5   116.170200   616.888960   0.00000000         0.00
   CG314   OG3C61    CG321     5   110.445500   466.683360   0.00000000         0.00
   CG321   OG3C61    CG321     5   109.700000   794.960000   0.00000000         0.00
   CG321   OG3C61   CG3C31     5   109.700000   794.960000   0.00000000         0.00
   CG321   OG3C61   CG3C50     5   108.403900   377.815200   0.00000000         0.00
   CG321   OG3C61   CG3RC1     5   102.830300   204.179200   0.00000000         0.00
   CG321   OG3C61    NG301     5   102.833200   565.760480   0.00000000         0.00
  CG2D1O   OG3R60   CG2D1O     5    99.000000   334.720000   0.00000000         0.00
  CG2D1O   OG3R60    CG301     5    99.000000   167.360000   0.00000000         0.00
  CG2D1O   OG3R60    CG311     5    99.000000   167.360000   0.00000000         0.00
  CG2D1O   OG3R60    CG321     5    99.000000   167.360000   0.00000000         0.00
  CG2D2O   OG3R60   CG2D2O     5    99.000000   334.720000   0.00000000         0.00
  CG2D2O   OG3R60    CG301     5    99.000000   167.360000   0.00000000         0.00
  CG2D2O   OG3R60    CG311     5    99.000000   167.360000   0.00000000         0.00
  CG2D2O   OG3R60    CG321     5    99.000000   167.360000   0.00000000         0.00
   CG2O2   OG3R60    CG311     5   105.390700   452.625120   0.00000000         0.00
   CG2O6   OG3R60   CG2R61     5   107.660400   521.326400   0.00000000         0.00
   CG2O6   OG3R60    CG301     5   108.302600   371.288160   0.00000000         0.00
   CG2O6   OG3R60    CG311     5   103.674700   355.723680   0.00000000         0.00
   CG2O6   OG3R60    CG321     5   109.665000   509.527520   0.00000000         0.00
  CG2R51   OG3R60    CG321     5   103.197100   274.386720   0.00000000         0.00
  CG2R61   OG3R60   CG2R61     5   115.000000   334.720000   0.00000000         0.00
  CG2R61   OG3R60   CG2R63     5   126.500000   853.536000   0.00000000         0.00
  CG2R61   OG3R60    CG301     5   105.845500   537.811360   0.00000000         0.00
  CG2R61   OG3R60    CG311     5    98.838100   393.379680   0.00000000         0.00
  CG2R61   OG3R60    CG312     5   102.476100   776.048320   0.00000000         0.00
  CG2R61   OG3R60    CG321     5   104.230700   428.776320   0.00000000         0.00
  CG2R61   OG3R60   CG3C41     5   109.095600   528.857600   0.00000000         0.00
  CG2R61   OG3R60   CG3C50     5   109.085900   404.676480   0.00000000         0.00
  CG2R61   OG3R60   CG3RC1     5   112.149000   472.457280   0.00000000         0.00
  CG2R61   OG3R60    NG311     5   105.624300   590.948160   0.00000000         0.00
  CG2R62   OG3R60   CG2R62     5   115.000000   334.720000   0.00000000         0.00
  CG2R62   OG3R60   CG2R63     5   126.500000   853.536000   0.00000000         0.00
  CG2R62   OG3R60    CG321     5   111.318000   596.889440   0.00000000         0.00
  CG2R63   OG3R60   CG2R64     5   126.500000   853.536000   0.00000000         0.00
  CG2R63   OG3R60   CG2R67     5   126.500000   853.536000   0.00000000         0.00
   CG311   OG3R60    NG2D1     5   100.329000   918.555360   0.00000000         0.00
   CG311   OG3R60   NG2R61     5   102.108900   559.986560   0.00000000         0.00
   CG331      PG0    OG2P1     5   121.000000   538.564480   0.00000000         0.00
   CG331      PG0    OG303     5   107.340000   442.248800   0.00000000         0.00
   NG2S3      PG0    OG2P1     5   120.640000  1000.310720   0.00000000         0.00
   NG2S3      PG0    OG303     5    96.040000   502.247360   0.00000000         0.00
   OG2P1      PG0    OG303     5   111.600000   827.595200   0.00000000         0.00
   OG2P1      PG0    OG304     5   111.600000   827.595200   0.00000000         0.00
   OG2P1      PG0    OG311     5   108.230000   827.595200   0.00000000         0.00
   OG2P1      PG0    SG2P1     5   131.030000   627.600000   0.00000000         0.00
   OG303      PG0    OG303     5   108.000000   402.500800   0.00000000         0.00
   OG303      PG0    OG304     5   108.000000   402.500800   0.00000000         0.00
   OG303      PG0    OG311     5   108.000000   402.500800   0.00000000         0.00
   OG303      PG0    SG2P1     5   111.600000   827.595200   0.00000000         0.00
   OG303      PG0    SG2P2     5   111.600000   827.595200   0.00000000         0.00
   OG304      PG0    OG304     5   108.000000   402.500800   0.00000000         0.00
   OG304      PG0    OG311     5   108.000000   402.500800   0.00000000         0.00
   OG304      PG0    SG2P1     5   112.840000   810.022400   0.00000000         0.00
   OG304      PG0    SG2P2     5   112.840000   810.022400   0.00000000         0.00
   OG311      PG0    OG311     5   104.000000   827.595200   0.00000000         0.00
   OG311      PG0    SG2P1     5   131.030000   627.600000   0.00000000         0.00
   OG311      PG0    SG2P2     5   131.030000   627.600000   0.00000000         0.00
   SG2P2      PG0    SG2P2     5   128.470000   773.203200   0.00000000         0.00
   CG312      PG1    OG2P1     5    94.000000   827.595200   0.00000000         0.00
   CG312      PG1    OG311     5    90.000000   753.956800   0.00000000         0.00
   CG321      PG1    OG2P1     5   103.000000   827.595200   0.00000000         0.00
   CG321      PG1    OG311     5    94.000000   753.956800   0.00000000         0.00
   CG331      PG1    OG2P1     5   103.000000   827.595200   0.00000000         0.00
   CG331      PG1    OG303     5    94.700000   742.325280   0.00000000         0.00
   NG2S3      PG1    OG2P1     5   110.600000  1171.520000   0.00000000         0.00
   NG2S3      PG1    OG303     5   103.200000   502.080000   0.00000000         0.00
   OG2P1      PG1    OG2P1     5   120.000000   870.272000   0.00000000         0.00
   OG2P1      PG1    OG303     5   107.500000   827.595200   0.00000000         0.00
   OG2P1      PG1    OG304     5   111.600000   743.915200   0.00000000         0.00
   OG2P1      PG1    OG311     5   111.000000   827.595200   0.00000000         0.00
   OG303      PG1    OG303     5   104.300000   669.440000   0.00000000         0.00
   OG303      PG1    OG304     5   105.000000   402.500800   0.00000000         0.00
   OG303      PG1    OG311     5   108.000000   402.500800   0.00000000         0.00
   OG304      PG1    OG304     5   107.500000   402.500800   0.00000000         0.00
   OG304      PG1    OG311     5   111.000000   402.500800   0.00000000         0.00
   CG312      PG2    OG2P1     5    94.000000   827.595200   0.00000000         0.00
   CG321      PG2    OG2P1     5   103.000000   827.595200   0.00000000         0.00
  NG2R51      PG2    OG2P1     5   100.090000   799.897120   0.00000000         0.00
   OG2P1      PG2    OG2P1     5   121.000000   870.272000   0.00000000         0.00
   OG2P1      PG2    OG303     5   111.000000   743.915200   0.00000000         0.00
   OG2P1      PG2    OG304     5   111.600000   743.915200   0.00000000         0.00
   OG2P1      PG2    SG2P1     5   131.030000   627.600000   0.00000000         0.00
   OG2S1      PG2    OG2S1     5   121.000000   870.272000   0.00000000         0.00
   OG2S1      PG2    OG303     5   111.000000   743.915200   0.00000000         0.00
   OG2S1      PG2    OG304     5   111.600000   743.915200   0.00000000         0.00
   OG2S1      PG2    OG311     5   111.000000   743.915200   0.00000000         0.00
   OG2S1      PG2    SG2P1     5   131.030000   627.600000   0.00000000         0.00
   OG2S1      PG2    SG2P2     5   131.030000   627.600000   0.00000000         0.00
   OG303      PG2    SG2P1     5   111.000000   743.915200   0.00000000         0.00
   OG303      PG2    SG2P2     5   111.000000   743.915200   0.00000000         0.00
   OG304      PG2    SG2P1     5   112.840000   810.022400   0.00000000         0.00
   OG304      PG2    SG2P2     5   112.840000   810.022400   0.00000000         0.00
   OG311      PG2    SG2P1     5   111.000000   743.915200   0.00000000         0.00
   SG2P2      PG2    SG2P2     5   128.470000   773.203200   0.00000000         0.00
   CG321    SG2P1      PG2     5    91.850000   333.548480   0.00000000         0.00
  CG251O   SG2R50   CG2RC0     5    97.000000   920.480000   0.00000000         0.00
  CG252O   SG2R50   CG2RC0     5    97.000000   920.480000   0.00000000         0.00
  CG2R51   SG2R50   CG2R51     5    95.000000   878.640000   0.00000000         0.00
  CG2R51   SG2R50   CG2R53     5    97.000000   920.480000   0.00000000         0.00
  CG2R51   SG2R50   CG2R57     5    95.000000   878.640000   0.00000000         0.00
  CG2R51   SG2R50   CG2RC0     5    99.500000   585.760000   0.00000000         0.00
  CG2R51   SG2R50   NG2R50     5   103.000000  1255.200000   0.00000000         0.00
  CG2R51   SG2R50   NG2R51     5    77.489600   577.726720   0.00000000         0.00
  CG2R51   SG2R50   SG2R50     5    60.211500   458.650080   0.00000000         0.00
  CG2R53   SG2R50   CG2RC0     5    97.000000   920.480000   0.00000000         0.00
  CG2R53   SG2R50   NG2R50     5   103.000000  1255.200000   0.00000000         0.00
  CG2R53   SG2R50   SG2R50     5    75.611200   849.352000   0.00000000         0.00
  CG2R57   SG2R50   CG2RC0     5    99.500000   585.760000   0.00000000         0.00
  CG2RC0   SG2R50   CG2RC0     5    99.500000   585.760000   0.00000000         0.00
  CG2RC0   SG2R50   NG2R50     5   103.000000  1255.200000   0.00000000         0.00
  CG2RC0   SG2R50   NG2R51     5    92.975000  1709.917120   0.00000000         0.00
   CG321    SG301    OG301     5   101.700000   431.035680   0.00000000         0.00
   CG321    SG301    OG311     5    99.370000   582.580160   0.00000000         0.00
   CG321    SG301    OG312     5   104.890000   447.185920   0.00000000         0.00
   CG321    SG301    SG301     5   103.300000   606.680000   0.00000000         0.00
   CG321    SG301    SG311     5   103.300000   606.680000   0.00000000         0.00
   CG321    SG301    SG3O1     5    94.970000   495.050880   0.00000000         0.00
   CG331    SG301    SG301     5   103.300000   606.680000   0.00000000         0.00
   CG1N1    SG311    CG321     5    99.480000   523.000000   0.00000000         0.00
  CG251O    SG311   CG2R53     5    92.000000   627.600000   0.00000000         0.00
  CG252O    SG311   CG2R53     5    92.000000   627.600000   0.00000000         0.00
  CG2D1O    SG311   CG2R61     5    87.401200   574.881600   0.00000000         0.00
  CG2D1O    SG311    CG311     5    98.050000   551.116480   0.00000000         0.00
  CG2D1O    SG311    CG331     5    98.050000   551.116480   0.00000000         0.00
  CG2D1O    SG311   CG3C51     5    98.050000   551.116480   0.00000000         0.00
  CG2D2O    SG311   CG2R61     5    87.401200   574.881600   0.00000000         0.00
  CG2D2O    SG311    CG311     5    98.050000   551.116480   0.00000000         0.00
  CG2D2O    SG311    CG331     5    98.050000   551.116480   0.00000000         0.00
  CG2D2O    SG311   CG3C51     5    98.050000   551.116480   0.00000000         0.00
   CG2N2    SG311    CG321     5    94.700000   493.712000   0.00000000         0.00
   CG2N2    SG311    CG331     5    94.700000   493.712000   0.00000000         0.00
   CG2N2    SG311   CG3RC1     5    91.018200   457.394880   0.00000000         0.00
   CG2O2    SG311    CG321     5    96.000000   502.080000   0.00000000         0.00
   CG2O2    SG311    CG331     5    96.000000   502.080000   0.00000000         0.00
   CG2O2    SG311     HGP3     5    95.251100   471.453120   0.00000000         0.00
   CG2O6    SG311    CG321     5    96.000000   502.080000   0.00000000         0.00
   CG2O6    SG311    CG331     5    96.000000   502.080000   0.00000000         0.00
  CG2R51    SG311    NG2P1     5    88.167900   693.456160   0.00000000         0.00
  CG2R53    SG311   CG3C50     5    90.898300   576.220480   0.00000000         0.00
  CG2R53    SG311   CG3C51     5    86.768600   677.556960   0.00000000         0.00
  CG2R53    SG311   CG3C52     5    93.970100  1048.510400   0.00000000         0.00
  CG2R53    SG311   NG2R53     5   105.876500   403.170240   0.00000000         0.00
  CG2R57    SG311   CG3C52     5    95.113700  1425.907200   0.00000000         0.00
  CG2R61    SG311   CG2R61     5   109.000000   418.400000   0.00000000         0.00
  CG2R61    SG311   CG2R64     5   109.000000   418.400000   0.00000000         0.00
  CG2R61    SG311    CG301     5    97.000000   384.928000   0.00000000         0.00
  CG2R61    SG311    CG311     5    97.000000   384.928000   0.00000000         0.00
  CG2R61    SG311    CG321     5    97.000000   384.928000   0.00000000         0.00
  CG2R61    SG311    CG331     5    91.000000   552.288000   0.00000000         0.00
  CG2R61    SG311     HGP3     5    97.519600   498.398080   0.00000000         0.00
  CG2R62    SG311   CG2R63     5   109.000000   418.400000   0.00000000         0.00
  CG2R62    SG311    CG321     5    97.000000   384.928000   0.00000000         0.00
  CG2R64    SG311    CG321     5    97.000000   384.928000   0.00000000         0.00
  CG2R64    SG311    CG331     5    91.000000   552.288000   0.00000000         0.00
  CG2R71    SG311    CG331     5    87.533300   694.292960   0.00000000         0.00
  CG2RC0    SG311   CG3C51     5    84.360500   995.540960   0.00000000         0.00
  CG2RC0    SG311   CG3C52     5    85.200400  1029.598720   0.00000000         0.00
   CG301    SG311    CG321     5    95.000000   284.512000   0.00000000         0.00
   CG301    SG311     HGP3     5    95.000000   324.678400   0.00000000         0.00
   CG311    SG311    CG311     5    95.000000   284.512000   0.00000000         0.00
   CG311    SG311    CG321     5    95.000000   284.512000   0.00000000         0.00
   CG311    SG311    CG331     5    95.000000   284.512000   0.00000000         0.00
   CG311    SG311     HGP3     5    95.000000   324.678400   0.00000000         0.00
   CG312    SG311    CG321     5    95.200000   398.149440   0.00000000         0.00
   CG314    SG311    CG321     5    92.080000   301.666400   0.00000000         0.00
   CG314    SG311    CG331     5    92.080000   301.666400   0.00000000         0.00
   CG321    SG311    CG321     5    95.000000   284.512000   0.00000000         0.00
   CG321    SG311    CG331     5    95.000000   284.512000   0.00000000         0.00
   CG321    SG311   CG3C41     5    95.000000   284.512000   0.00000000         0.00
   CG321    SG311   CG3C51     5    95.000000   284.512000   0.00000000         0.00
   CG321    SG311   CG3RC1     5    95.000000   284.512000   0.00000000         0.00
   CG321    SG311    NG2D1     5    92.330000   551.534880   0.00000000         0.00
   CG321    SG311     HGP3     5    95.000000   324.678400   0.00000000         0.00
   CG331    SG311     HGP3     5    95.000000   359.824000   0.00000000         0.00
  CG3C50    SG311   CG3C52     5    96.200000   378.233600   0.00000000         0.00
  CG3C51    SG311   CG3C52     5    96.200000   378.233600   0.00000000         0.00
  CG3C52    SG311   CG3C52     5    96.200000   378.233600   0.00000000         0.00
  CG3C52    SG311   CG3C53     5    90.335700  1011.523840   0.00000000         0.00
  CG3C52    SG311   CG3RC1     5    96.200000   378.233600   0.00000000         0.00
  CG3RC1    SG311   CG3RC1     5    96.200000   378.233600   0.00000000         0.00
  NG2R51    SG311     HGP3     5    95.966900   555.718880   0.00000000         0.00
   SG301    SG311     HGP3     5    99.090000   508.272320   0.00000000         0.00
  CG2R51    SG3O1    OG2P1     5    96.863400   363.589600   0.00000000         0.00
  CG2R61    SG3O1    OG2P1     5    98.000000   711.280000   0.00000000         0.00
  CG2R64    SG3O1    OG2P1     5    98.000000   711.280000   0.00000000         0.00
   CG311    SG3O1    OG2P1     5    99.000000   669.440000   0.00000000         0.00
   CG321    SG3O1    OG2P1     5    99.000000   669.440000   0.00000000         0.00
   CG331    SG3O1    OG2P1     5   100.000000   711.280000   0.00000000         0.00
  CG3C51    SG3O1    OG2P1     5    92.164100   567.852480   0.00000000         0.00
   NG2S3    SG3O1    OG2P1     5    94.200000   277.817600   0.00000000         0.00
   OG2P1    SG3O1    OG2P1     5   109.470000  1087.840000   0.24500000     29288.00
   OG2P1    SG3O1    OG303     5    98.000000   711.280000   0.00000000         0.00
   OG2P1    SG3O1    SG301     5    97.860000   635.716960   0.00000000         0.00
  CG2R51    SG3O2    CG321     5    94.697200   793.621120   0.00000000         0.00
  CG2R51    SG3O2   CG3C52     5    97.602700   883.326080   0.00000000         0.00
  CG2R51    SG3O2   NG2R53     5    92.499700  1012.862720   0.00000000         0.00
  CG2R51    SG3O2    NG301     5    97.000000   418.400000   0.00000000         0.00
  CG2R51    SG3O2    NG311     5    97.000000   418.400000   0.00000000         0.00
  CG2R51    SG3O2    NG321     5    97.000000   418.400000   0.00000000         0.00
  CG2R51    SG3O2    OG2P1     5   106.500000   585.760000   0.00000000         0.00
  CG2R53    SG3O2    NG321     5    97.000000   418.400000   0.00000000         0.00
  CG2R53    SG3O2    OG2P1     5   108.691600   482.749920   0.00000000         0.00
  CG2R53    SG3O2    OG311     5    94.460200   409.697280   0.00000000         0.00
  CG2R61    SG3O2   CG2R61     5    91.082800   632.369760   0.00000000         0.00
  CG2R61    SG3O2    CG311     5   101.685300   758.559200   0.00000000         0.00
  CG2R61    SG3O2    CG321     5    97.386300   513.627840   0.00000000         0.00
  CG2R61    SG3O2    CG331     5    99.618000   464.424000   0.00000000         0.00
  CG2R61    SG3O2    NG2D1     5    92.066600   597.307840   0.00000000         0.00
  CG2R61    SG3O2    NG2S0     5    92.039000   879.309440   0.00000000         0.00
  CG2R61    SG3O2    NG301     5    97.000000   418.400000   0.00000000         0.00
  CG2R61    SG3O2    NG311     5    97.000000   585.760000   0.00000000         0.00
  CG2R61    SG3O2    NG321     5    98.000000   502.080000   0.00000000         0.00
  CG2R61    SG3O2    OG2P1     5   101.000000   502.080000   0.00000000         0.00
  CG2R62    SG3O2    CG331     5    98.137400   452.959840   0.00000000         0.00
  CG2R62    SG3O2    NG321     5    98.000000   502.080000   0.00000000         0.00
  CG2R62    SG3O2    OG2P1     5   101.000000   502.080000   0.00000000         0.00
  CG2R64    SG3O2    OG2P1     5   101.000000   502.080000   0.00000000         0.00
  CG2R64    SG3O2    OG311     5    79.725800   344.092160   0.00000000         0.00
  CG2RC0    SG3O2   NG2R50     5    98.636100  1550.925120   0.00000000         0.00
  CG2RC0    SG3O2    OG2P1     5   106.500000   585.760000   0.00000000         0.00
   CG301    SG3O2    CG321     5   102.000000   669.440000   0.00000000         0.00
   CG301    SG3O2    OG2P1     5   107.500000   627.600000   0.00000000         0.00
   CG311    SG3O2    CG311     5   102.000000   669.440000   0.00000000         0.00
   CG311    SG3O2    CG321     5   102.000000   669.440000   0.00000000         0.00
   CG311    SG3O2    CG331     5   102.000000   669.440000   0.00000000         0.00
   CG311    SG3O2    NG321     5   101.000000   694.544000   0.00000000         0.00
   CG311    SG3O2    OG2P1     5   107.500000   627.600000   0.00000000         0.00
   CG321    SG3O2    CG321     5   102.000000   669.440000   0.00000000         0.00
   CG321    SG3O2    CG331     5   102.000000   669.440000   0.00000000         0.00
   CG321    SG3O2   CG3RC1     5    95.347400   618.395200   0.00000000         0.00
   CG321    SG3O2    NG301     5   101.000000   518.816000   0.00000000         0.00
   CG321    SG3O2    NG311     5   101.000000   518.816000   0.00000000         0.00
   CG321    SG3O2    OG2P1     5   107.500000   627.600000   0.00000000         0.00
   CG321    SG3O2    OG303     5    96.000000   778.224000   0.00000000         0.00
   CG331    SG3O2    CG331     5   102.000000   669.440000   0.00000000         0.00
   CG331    SG3O2   CG3C41     5   102.000000   669.440000   0.00000000         0.00
   CG331    SG3O2    NG301     5   103.000000   610.864000   0.00000000         0.00
   CG331    SG3O2    NG311     5   103.000000   610.864000   0.00000000         0.00
   CG331    SG3O2    NG321     5   101.000000   694.544000   0.00000000         0.00
   CG331    SG3O2   NG3C51     5   103.000000   610.864000   0.00000000         0.00
   CG331    SG3O2    OG2P1     5   108.500000   661.072000   0.00000000         0.00
   CG331    SG3O2    OG303     5    96.000000   778.224000   0.00000000         0.00
  CG3C31    SG3O2    NG311     5   101.000000   518.816000   0.00000000         0.00
  CG3C31    SG3O2    OG2P1     5   107.500000   627.600000   0.00000000         0.00
  CG3C41    SG3O2   CG3C41     5    68.988100    18.158560   0.00000000         0.00
  CG3C41    SG3O2   CG3C52     5    98.874200   733.706240   0.00000000         0.00
  CG3C41    SG3O2    OG2P1     5   107.500000   627.600000   0.00000000         0.00
  CG3C50    SG3O2   CG3C52     5    96.204100   743.747840   0.00000000         0.00
  CG3C50    SG3O2    OG2P1     5   102.806900   567.183040   0.00000000         0.00
  CG3C51    SG3O2   CG3C52     5    96.019100   750.860640   0.00000000         0.00
  CG3C51    SG3O2    OG2P1     5   107.307800   545.928320   0.00000000         0.00
  CG3C52    SG3O2   CG3C52     5    97.008800   792.031200   0.00000000         0.00
  CG3C52    SG3O2    OG2P1     5   107.952700   534.715200   0.00000000         0.00
  CG3RC1    SG3O2   CG3RC1     5    88.415500   960.395360   0.00000000         0.00
  CG3RC1    SG3O2    OG2P1     5   104.584600   648.436320   0.00000000         0.00
   NG2D1    SG3O2    OG2P1     5   105.770600   628.436800   0.00000000         0.00
  NG2R50    SG3O2    OG2P1     5   105.850900   455.219200   0.00000000         0.00
  NG2R53    SG3O2    OG2P1     5   110.958600   500.741120   0.00000000         0.00
   NG2S0    SG3O2    OG2P1     5   102.029100   682.326720   0.00000000         0.00
   NG301    SG3O2    OG2P1     5   108.500000   585.760000   0.00000000         0.00
   NG311    SG3O2    NG311     5   102.300000   695.380800   0.00000000         0.00
   NG311    SG3O2    OG2P1     5   110.500000   627.600000   0.00000000         0.00
   NG321    SG3O2   NG3C51     5   102.300000   695.380800   0.00000000         0.00
   NG321    SG3O2    OG2P1     5   111.000000   669.440000   0.00000000         0.00
   NG321    SG3O2    OG303     5   102.000000   836.800000   0.00000000         0.00
  NG3C51    SG3O2   NG3C51     5   102.300000   695.380800   0.00000000         0.00
  NG3C51    SG3O2    OG2P1     5   110.500000   627.600000   0.00000000         0.00
   OG2P1    SG3O2    OG2P1     5   121.000000   711.280000   0.00000000         0.00
   OG2P1    SG3O2    OG303     5   109.000000   753.120000   0.00000000         0.00
   OG2P1    SG3O2    OG311     5   112.223800   762.408480   0.00000000         0.00
   CG2O4    SG3O3    CG321     5    94.155000   778.391360   0.00000000         0.00
   CG2O4    SG3O3    CG331     5   106.139800   484.925600   0.00000000         0.00
   CG2O4    SG3O3    OG2P1     5   114.649200   459.319520   0.00000000         0.00
   CG2O5    SG3O3    CG331     5   101.360900   678.979520   0.00000000         0.00
   CG2O5    SG3O3    NG2D1     5   120.875200   622.662880   0.00000000         0.00
   CG2O5    SG3O3    OG2P1     5   109.946200   545.509920   0.00000000         0.00
  CG2R52    SG3O3   CG3C52     5   115.238400   390.199840   0.00000000         0.00
  CG2R52    SG3O3   CG3RC1     5    96.390100  1029.766080   0.00000000         0.00
  CG2R52    SG3O3   NG3C51     5   114.451300    89.956000   0.00000000         0.00
  CG2R52    SG3O3    OG2P1     5   106.557100   412.542400   0.00000000         0.00
  CG2R61    SG3O3    CG331     5    93.082200   526.932960   0.00000000         0.00
  CG2R61    SG3O3    OG2P1     5   104.843000   661.741440   0.00000000         0.00
   CG301    SG3O3    CG321     5    95.000000   711.280000   0.00000000         0.00
   CG301    SG3O3    OG2P1     5   106.500000   543.920000   0.00000000         0.00
   CG311    SG3O3    CG311     5    95.000000   711.280000   0.00000000         0.00
   CG311    SG3O3    CG321     5    92.947900   530.531200   0.00000000         0.00
   CG311    SG3O3    CG331     5    95.000000   711.280000   0.00000000         0.00
   CG311    SG3O3    OG2P1     5   105.977000   597.558880   0.00000000         0.00
   CG321    SG3O3    CG321     5    89.798300   553.626880   0.00000000         0.00
   CG321    SG3O3    CG331     5    95.000000   711.280000   0.00000000         0.00
   CG321    SG3O3    OG2P1     5   106.500000   543.920000   0.00000000         0.00
   CG331    SG3O3    CG331     5    95.000000   284.512000   0.00000000         0.00
   CG331    SG3O3    NG2D1     5   102.952500   599.818240   0.00000000         0.00
   CG331    SG3O3    OG2P1     5   106.750000   661.072000   0.00000000         0.00
  CG3C52    SG3O3   CG3C52     5    89.906300   955.709280   0.00000000         0.00
  CG3C52    SG3O3   CG3RC1     5    96.562100   500.239040   0.00000000         0.00
  CG3C52    SG3O3    OG2P1     5   109.596900   508.356000   0.00000000         0.00
  CG3RC1    SG3O3   NG3C51     5    82.570000   870.690400   0.00000000         0.00
  CG3RC1    SG3O3    OG2P1     5   106.534900   280.579040   0.00000000         0.00
   NG2D1    SG3O3    OG2P1     5   120.616000   464.842400   0.00000000         0.00
   NG2S1    SG3O3    NG311     5    87.477800   815.461600   0.00000000         0.00
   NG2S1    SG3O3    OG2P1     5   111.505600   597.809920   0.00000000         0.00
   NG311    SG3O3    OG2P1     5   115.885600   531.786400   0.00000000         0.00
  NG3C51    SG3O3    OG2P1     5    94.844800  1009.180800   0.00000000         0.00
  CG2R61    BG201    OG2D2     5   133.000000   669.440000   0.00000000         0.00
  CG2R61    BG201    OG311     5   123.000000   334.720000   0.00000000         0.00
  CG2RC0    BG201    OG2D2     5   126.000000   669.440000   0.00000000         0.00
  CG2RC0    BG201    OG311     5   120.900000   502.080000   0.00000000         0.00
  CG2RC0    BG201   OG3C51     5   108.900000   502.080000   0.00000000         0.00
   CG321    BG201    OG2D2     5   133.000000   669.440000   0.00000000         0.00
   CG321    BG201    OG311     5   125.000000   334.720000   0.00000000         0.00
   CG331    BG201    OG2D2     5   133.000000   669.440000   0.00000000         0.00
   CG331    BG201    OG311     5   125.000000   334.720000   0.00000000         0.00
   OG2D2    BG201    OG2D2     5   148.000000  1255.200000   0.00000000         0.00
   OG2D2    BG201    OG311     5   135.000000   920.480000   0.00000000         0.00
   OG2D2    BG201   OG3C51     5   126.900000   920.480000   0.00000000         0.00
   OG311    BG201    OG311     5   120.000000  1255.200000   0.00000000         0.00
   OG311    BG201   OG3C51     5   122.500000   920.480000   0.00000000         0.00
    FGP1     ALG1     FGP1     5   109.470000   192.464000   0.28185500     12552.00
   CC311    CC311    CC321     5   111.000000   446.432800   0.25610000      6694.40
   CC322    CC312    CC322     5   111.000000   376.560000   0.00000000         0.00
   CC312    CC312    CC322     5   111.000000   376.560000   0.00000000         0.00
   CC312    CC2O3    OC2D3     5   121.500000   627.600000   0.00000000         0.00
   CC331    CC2O3    OC2D3     5   121.500000   627.600000   0.00000000         0.00
   CC322    CC2O3    OC2D3     5   121.500000   627.600000   0.00000000         0.00
   CC331    CC2O3    CC331     5   116.000000   292.880000   0.00000000         0.00
   CC312    CC2O3    CC322     5   116.000000   292.880000   0.00000000         0.00
   CC322    CC2O3    CC322     5   116.000000   292.880000   0.00000000         0.00
   CC312    CC312    CC2O3     5   113.800000   502.080000   0.00000000         0.00
   CC2O3    CC331     HCA3     5   109.500000   418.400000   0.00000000         0.00
   CC2O3    CC322     HCA2     5   109.500000   418.400000   0.00000000         0.00
    HCA1    CC312    CC2O3     5   109.500000   418.400000   0.00000000         0.00
   OC311    CC312    CC2O3     5   108.890000   460.240000   0.00000000         0.00
   CC2O3    CC322    OC311     5   108.890000   460.240000   0.00000000         0.00
   OC2D4    CC2O4     HCR1     5   118.000000   543.920000   0.00000000         0.00
    HCR1    CC2O4    CC331     5   116.000000   543.920000   0.00000000         0.00
    HCR1    CC2O4    CC312     5   116.000000   543.920000   0.00000000         0.00
   CC312    CC2O4    OC2D4     5   126.000000   376.560000   0.00000000         0.00
   CC331    CC2O4    OC2D4     5   126.000000   376.560000   0.00000000         0.00
   CC312    CC312    CC2O4     5   113.800000   502.080000   0.00000000         0.00
   OC311    CC312    CC2O4     5   108.890000   460.240000   0.00000000         0.00
   CC2O4    CC312     HCA1     5   109.500000   276.144000   0.21630000     25104.00
   CC2O4    CC331     HCA3     5   109.500000   276.144000   0.21630000     25104.00
  CC3161   CC3161   CC3161     5   111.000000   446.432800   0.25610000      6694.40
  CC3261   CC3161   CC3161     5   111.000000   446.432800   0.25610000      6694.40
  CC3161   CC3161   CC3163     5   111.000000   446.432800   0.25610000      6694.40
  CC3161   CC3161   CC3263     5   111.000000   446.432800   0.25610000      6694.40
   CC312    CC312    CC312     5   111.000000   376.560000   0.00000000         0.00
  CC3162   CC3161   CC3161     5   111.000000   446.432800   0.25610000      6694.40
  CC3163    CC312    CC312     5   111.000000   446.432800   0.25610000      6694.40
  CC3062   CC3261   CC3161     5   113.500000   488.272800   0.25610000      9338.69
  CC3161   CC3163    CC321     5   113.500000   488.272800   0.25610000      9338.69
  CC3161   CC3163    CC312     5   113.500000   488.272800   0.25610000      9338.69
  CC3161   CC3163    CC331     5   113.500000   488.272800   0.25610000      9338.69
   CC2O2    CC311    CC331     5   108.000000   435.136000   0.00000000         0.00
   CC2O2   CC3163   CC3161     5   108.000000   435.136000   0.00000000         0.00
   CC2O2    CC301    CC331     5   112.000000   435.136000   0.00000000         0.00
   CC2O2   CC3062   CC3261     5   112.000000   435.136000   0.00000000         0.00
   CC321    CC321    CC321     5   113.600000   488.272800   0.25610000      9338.69
   CC331    CC321    CC321     5   115.000000   485.344000   0.25610000      6694.40
   CC331    CC311    CC331     5   114.000000   446.432800   0.25610000      6694.40
  CC321C   CC321C   CC321C     5   112.000000   488.272800   0.25610000      9338.69
  CC321C   CC311C   CC321C     5   112.000000   488.272800   0.25610000      9338.69
  CC321D   CC321C   CC311C     5   112.000000   488.272800   0.25610000      9338.69
  CC321D   CC311C   CC321C     5   112.000000   488.272800   0.25610000      9338.69
  CC321D   CC321C   CC321C     5   112.000000   488.272800   0.25610000      9338.69
  CC311D   CC321C   CC321C     5   112.000000   488.272800   0.25610000      9338.69
  CC311C   CC321C   CC321C     5   112.000000   488.272800   0.25610000      9338.69
  CC321C   CC321D   CC321C     5   112.000000   488.272800   0.25610000      9338.69
   CC321   CC311C   CC321C     5   113.500000   488.272800   0.25610000      9338.69
   CC2O2    CC321    CC331     5   108.000000   435.136000   0.00000000         0.00
   CC312    CC312     HCA1     5   110.100000   288.696000   0.21790000     18853.10
   CC312   CC3163     HCA1     5   110.100000   288.696000   0.21790000     18853.10
  CC3161   CC3161     HCA1     5   110.100000   288.696000   0.21790000     18853.10
  CC3161   CC3162     HCA1     5   110.100000   288.696000   0.21790000     18853.10
  CC3261   CC3161     HCA1     5   110.100000   288.696000   0.21790000     18853.10
  CC3162   CC3161     HCA1     5   110.100000   288.696000   0.21790000     18853.10
  CC3163   CC3161     HCA1     5   110.100000   288.696000   0.21790000     18853.10
  CC3161   CC3163     HCA1     5   110.100000   288.696000   0.21790000     18853.10
  CC3163    CC312     HCA1     5   110.100000   288.696000   0.21790000     18853.10
   CC322    CC312     HCA1     5   110.100000   288.696000   0.21790000     18853.10
   CC321   CC3163     HCA1     5   110.100000   288.696000   0.21790000     18853.10
   CC331    CC311     HCA1     5   110.100000   288.696000   0.21790000     18853.10
   CC331   CC3163     HCA1     5   110.100000   288.696000   0.21790000     18853.10
  CC3263   CC3161     HCA1     5   110.100000   288.696000   0.21790000     18853.10
   CC321    CC311     HCA1     5   110.100000   288.696000   0.21790000     18853.10
   CC312    CC322     HCA2     5   110.100000   279.742240   0.21790000     18853.10
  CC3163    CC321     HCA2     5   110.100000   279.742240   0.21790000     18853.10
  CC3062   CC3261     HCA2     5   110.100000   279.742240   0.21790000     18853.10
  CC3161   CC3261     HCA2     5   110.100000   279.742240   0.21790000     18853.10
   CC311    CC321     HCA2     5   110.100000   279.742240   0.21790000     18853.10
  CC3161   CC3263     HCA2     5   110.100000   279.742240   0.21790000     18853.10
  CC3163    CC331     HCA3     5   110.100000   279.742240   0.21790000     18853.10
   CC311    CC331     HCA3     5   110.100000   279.742240   0.21790000     18853.10
   CC301    CC331     HCA3     5   110.100000   279.742240   0.21790000     18853.10
   CC2O2   CC3163     HCA1     5   109.500000   418.400000   0.00000000         0.00
   CC2O2    CC311     HCA1     5   109.500000   418.400000   0.00000000         0.00
   CC2O1    CC331     HCA3     5   109.500000   276.144000   0.21630000     25104.00
    HCA1   CC311C    CC321     5   110.100000   288.696000   0.21790000     18853.10
    HCA1   CC311D   CC321C     5   110.100000   288.696000   0.21790000     18853.10
    HCA1   CC311C   CC321C     5   110.100000   288.696000   0.21790000     18853.10
    HCA1   CC311C   CC321D     5   110.100000   288.696000   0.21790000     18853.10
    HCA2    CC321   CC311C     5   110.100000   279.742240   0.21790000     18853.10
    HCA2    CC321    CC321     5   110.100000   221.752000   0.21790000     18853.10
    HCA2    CC321    CC331     5   110.100000   289.532800   0.21790000     18853.10
    HCA3    CC331    CC321     5   110.100000   289.532800   0.21790000     18853.10
    HCA2   CC321C   CC321C     5   110.100000   288.696000   0.21790000     18853.10
    HCA2   CC321D   CC321C     5   110.100000   288.696000   0.21790000     18853.10
    HCA2   CC321C   CC321D     5   110.100000   288.696000   0.21790000     18853.10
    HCA2   CC321C   CC311D     5   110.100000   288.696000   0.21790000     18853.10
    HCA2   CC321C   CC311C     5   110.100000   288.696000   0.21790000     18853.10
    HCA2   CC321D   CC311C     5   110.100000   288.696000   0.21790000     18853.10
   CC2O2    CC321     HCA2     5   109.500000   276.144000   0.21630000     25104.00
  CC3161   CC3161    NC2D1     5   113.500000   585.760000   0.00000000         0.00
  CC3162   CC3161    NC2D1     5   113.500000   585.760000   0.00000000         0.00
  CC3163   CC3161    NC2D1     5   113.500000   585.760000   0.00000000         0.00
   CC331    CC311    NC2D1     5   113.500000   585.760000   0.00000000         0.00
   NC2D1    CC2O1    CC331     5   116.500000   669.440000   0.00000000         0.00
  CC3161    NC2D1    CC2O1     5   120.000000   418.400000   0.00000000         0.00
   CC2O1    NC2D1    CC311     5   120.000000   418.400000   0.00000000         0.00
   CC2O1    NC2D1    CC331     5   120.000000   418.400000   0.00000000         0.00
   NC2D1    CC2O1    OC2D1     5   122.500000   669.440000   0.00000000         0.00
   NC2D1   CC3161     HCA1     5   108.000000   401.664000   0.00000000         0.00
   NC2D1    CC311     HCA1     5   108.000000   401.664000   0.00000000         0.00
   NC2D1    CC331     HCA3     5   109.500000   430.952000   0.00000000         0.00
    HCP1    NC2D1    CC2O1     5   123.000000   284.512000   0.00000000         0.00
  CC3161    NC2D1     HCP1     5   117.000000   292.880000   0.00000000         0.00
    HCP1    NC2D1    CC311     5   117.000000   292.880000   0.00000000         0.00
    HCP1    NC2D1    CC331     5   117.000000   292.880000   0.00000000         0.00
    HCA2    CC321     HCA2     5   109.000000   297.064000   0.18020000      4518.72
    HCA2    CC322     HCA2     5   109.000000   297.064000   0.18020000      4518.72
    HCA2   CC321C     HCA2     5   109.000000   297.064000   0.18020000      4518.72
    HCA2   CC321D     HCA2     5   109.000000   297.064000   0.18020000      4518.72
    HCA2   CC3261     HCA2     5   109.000000   297.064000   0.18020000      4518.72
    HCA2   CC3263     HCA2     5   109.000000   297.064000   0.18020000      4518.72
    HCA3    CC331     HCA3     5   108.400000   297.064000   0.18020000      4518.72
  CC3161   CC3163   OC3C61     5   110.000000   376.560000   0.00000000         0.00
  CC3161   CC3263   OC3C61     5   110.000000   376.560000   0.00000000         0.00
  CC3161   CC3162   OC3C61     5   106.000000   376.560000   0.00000000         0.00
  OC3C61   CC3062   CC3261     5   111.500000   376.560000   0.00000000         0.00
   CC321   CC3163   OC3C61     5   109.000000   376.560000   0.00000000         0.00
   CC312   CC3163   OC3C61     5   109.000000   376.560000   0.00000000         0.00
   CC331   CC3163   OC3C61     5   111.500000   376.560000   0.00000000         0.00
   CC2O2    CC311    OC301     5   103.000000   376.560000   0.00000000         0.00
   CC2O2   CC3163   OC3C61     5   103.000000   376.560000   0.00000000         0.00
   CC2O2    CC301    OC301     5   103.000000   376.560000   0.00000000         0.00
   CC2O2   CC3062    OC301     5   103.000000   376.560000   0.00000000         0.00
   CC2O2   CC3062   OC3C61     5   103.000000   376.560000   0.00000000         0.00
  CC3161   CC3162    OC311     5   107.000000   633.457600   0.00000000         0.00
   CC312    CC312    OC311     5   108.000000   633.457600   0.00000000         0.00
  CC3161   CC3161    OC311     5   110.100000   633.457600   0.00000000         0.00
  CC3261   CC3161    OC311     5   110.100000   633.457600   0.00000000         0.00
  CC3162   CC3161    OC311     5   110.100000   633.457600   0.00000000         0.00
  CC3163   CC3161    OC311     5   110.100000   633.457600   0.00000000         0.00
  CC3163    CC312    OC311     5   110.100000   633.457600   0.00000000         0.00
  CC3263   CC3161    OC311     5   110.100000   633.457600   0.00000000         0.00
   CC312    CC322    OC311     5   106.000000   418.400000   0.00000000         0.00
  CC3163    CC321    OC311     5   110.100000   633.457600   0.00000000         0.00
   CC311    CC321    OC311     5   110.100000   633.457600   0.00000000         0.00
   CC321    CC311    OC311     5   110.100000   633.457600   0.00000000         0.00
   CC322    CC312    OC311     5   108.000000   633.457600   0.00000000         0.00
   CC331    CC301    OC311     5   113.000000   633.457600   0.00000000         0.00
  CC3261   CC3062    OC311     5   113.000000   633.457600   0.00000000         0.00
   CC2O2    CC301    OC311     5   110.100000   633.457600   0.00000000         0.00
   CC2O2   CC3062    OC311     5   110.100000   633.457600   0.00000000         0.00
  CC3163    CC2O2    OC2D2     5   114.000000   334.720000   0.23880000     41840.00
  CC3062    CC2O2    OC2D2     5   114.000000   334.720000   0.23880000     41840.00
   CC311    CC2O2    OC2D2     5   114.000000   334.720000   0.23880000     41840.00
   CC301    CC2O2    OC2D2     5   114.000000   334.720000   0.23880000     41840.00
   CC321    CC2O2    OC2D2     5   114.000000   334.720000   0.23880000     41840.00
   OC2D1    CC2O1    CC331     5   121.000000   669.440000   0.00000000         0.00
   OC301    CC311    CC331     5   111.500000   376.560000   0.00000000         0.00
   OC301    CC321    CC321     5   111.500000   376.560000   0.00000000         0.00
   OC301    CC301    CC331     5   109.000000   376.560000   0.00000000         0.00
  OC3C61   CC311C    CC321     5   109.000000   376.560000   0.00000000         0.00
  OC3C61   CC311C   CC321C     5   111.500000   376.560000   0.00000000         0.00
  OC3C61   CC321C   CC321C     5   111.500000   376.560000   0.00000000         0.00
  OC3C61   CC321C   CC311C     5   111.500000   376.560000   0.00000000         0.00
  OC3C61   CC321D   CC321C     5   111.500000   376.560000   0.00000000         0.00
  OC3C61   CC321D   CC311C     5   111.500000   376.560000   0.00000000         0.00
  OC3C61   CC311D   CC321C     5   111.500000   376.560000   0.00000000         0.00
   OC301   CC311D   CC321C     5   109.000000   376.560000   0.00000000         0.00
   OC301   CC3162   CC3161     5   105.000000   376.560000   0.00000000         0.00
   OC301   CC3062   CC3261     5   105.000000   376.560000   0.00000000         0.00
   OC302   CC311D   CC321C     5   109.000000   376.560000   0.00000000         0.00
   OC302   CC3162   CC3161     5   105.000000   376.560000   0.00000000         0.00
   OC301   CC311C   CC321C     5   109.000000   376.560000   0.00000000         0.00
   OC301   CC3161   CC3161     5   109.000000   376.560000   0.00000000         0.00
   OC301   CC3161   CC3163     5   109.000000   376.560000   0.00000000         0.00
   OC301   CC311C   CC321D     5   109.000000   376.560000   0.00000000         0.00
   OC301   CC3161   CC3162     5   109.000000   376.560000   0.00000000         0.00
   OC301    CC321   CC311C     5   106.000000   376.560000   0.00000000         0.00
   OC301    CC321   CC3163     5   106.000000   376.560000   0.00000000         0.00
   CC321    CC321   OC311M     5   110.100000   633.457600   0.00000000         0.00
   CC331    CC321   OC311M     5   110.100000   633.457600   0.00000000         0.00
   CC331    CC311   OC311M     5   110.100000   633.457600   0.00000000         0.00
  CC3161    OC311     HCP1     5   109.000000   418.400000   0.00000000         0.00
   CC321    OC311     HCP1     5   109.000000   418.400000   0.00000000         0.00
  CC3162    OC311     HCP1     5   109.000000   418.400000   0.00000000         0.00
  CC3062    OC311     HCP1     5   109.000000   418.400000   0.00000000         0.00
    HCP1    OC311    CC311     5   106.000000   418.400000   0.00000000         0.00
    HCP1    OC311    CC312     5   106.000000   418.400000   0.00000000         0.00
    HCP1    OC311    CC301     5   106.000000   418.400000   0.00000000         0.00
    HCP1    OC311    CC322     5   106.000000   418.400000   0.00000000         0.00
    HCP1   OC311M    CC321     5   106.000000   418.400000   0.00000000         0.00
   HCP1M   OC311M    CC321     5   106.000000   418.400000   0.00000000         0.00
    HCP1   OC311M    CC311     5   106.000000   418.400000   0.00000000         0.00
    HCP1   OC311M    CC331     5   106.000000   481.160000   0.00000000         0.00
   OC311   CC3162   OC3C61     5   116.500000   376.560000   0.00000000         0.00
   OC311    CC301    OC301     5   116.500000   376.560000   0.00000000         0.00
   OC311   CC3062   OC3C61     5   113.000000   376.560000   0.00000000         0.00
   OC2D2    CC2O2    OC2D2     5   132.000000   836.800000   0.22250000     58576.00
   OC301   CC311D   OC3C61     5   110.000000   753.120000   0.00000000         0.00
   OC301   CC3162   OC3C61     5   112.000000   753.120000   0.00000000         0.00
   OC301   CC3062   OC3C61     5   112.000000   753.120000   0.00000000         0.00
   OC302   CC311D   OC3C61     5   110.000000   753.120000   0.00000000         0.00
   OC302   CC3162   OC3C61     5   112.000000   753.120000   0.00000000         0.00
  CC3163   OC3C61   CC3162     5   109.700000   794.960000   0.00000000         0.00
  CC3163   OC3C61   CC3062     5   109.700000   794.960000   0.00000000         0.00
  CC3263   OC3C61   CC3162     5   109.700000   794.960000   0.00000000         0.00
   CC311    OC301    CC331     5   109.700000   794.960000   0.00000000         0.00
   CC301    OC301    CC331     5   109.700000   794.960000   0.00000000         0.00
  CC321C   OC3C61   CC321C     5   109.700000   794.960000   0.00000000         0.00
  CC321D   OC3C61   CC321C     5   109.700000   794.960000   0.00000000         0.00
  CC321D   OC3C61   CC311C     5   109.700000   794.960000   0.00000000         0.00
  CC311D   OC3C61   CC321C     5   109.700000   794.960000   0.00000000         0.00
  CC311D    OC301    CC331     5   109.700000   794.960000   0.00000000         0.00
  CC3162    OC301    CC331     5   109.700000   794.960000   0.00000000         0.00
  CC3162    OC301    CC321     5   109.700000   794.960000   0.00000000         0.00
   CC321    OC301    CC331     5   109.700000   794.960000   0.00000000         0.00
  CC311D    OC302   CC311D     5   111.500000   418.400000   0.00000000         0.00
  CC3162    OC302   CC3162     5   111.500000   418.400000   0.00000000         0.00
  CC311C    OC301   CC311D     5   109.200000   418.400000   0.00000000         0.00
  CC3161    OC301   CC3162     5   109.200000   418.400000   0.00000000         0.00
  CC3161    OC301   CC3062     5   109.200000   418.400000   0.00000000         0.00
    HCA1    CC312    OC311     5   108.890000   460.240000   0.00000000         0.00
    HCA1   CC3161    OC311     5   108.890000   460.240000   0.00000000         0.00
    HCA1   CC3162    OC311     5   108.890000   460.240000   0.00000000         0.00
    HCA1   CC3163    OC311     5   108.890000   460.240000   0.00000000         0.00
    HCA2    CC321    OC311     5   108.890000   460.240000   0.00000000         0.00
    HCA2    CC322    OC311     5   108.890000   460.240000   0.00000000         0.00
    HCA1   CC3162   OC3C61     5   109.500000   376.560000   0.00000000         0.00
    HCA1   CC3163   OC3C61     5   109.500000   376.560000   0.00000000         0.00
    HCA2   CC3263   OC3C61     5   109.500000   376.560000   0.00000000         0.00
    HCA1    CC311    OC301     5   109.500000   502.080000   0.00000000         0.00
   OC301    CC321     HCA2     5   109.500000   502.080000   0.00000000         0.00
   OC301    CC331     HCA3     5   109.500000   502.080000   0.00000000         0.00
    HCA3    CC331   OC311M     5   108.890000   460.240000   0.00000000         0.00
    HCA2    CC321   OC311M     5   108.890000   460.240000   0.00000000         0.00
    HCA1    CC311   OC311M     5   108.890000   460.240000   0.00000000         0.00
    HCA2   CC321C   OC3C61     5   109.500000   376.560000   0.00000000         0.00
    HCA2   CC321D   OC3C61     5   109.500000   376.560000   0.00000000         0.00
    HCA1   CC311C   OC3C61     5   109.500000   376.560000   0.00000000         0.00
    HCA1   CC311D   OC3C61     5   109.500000   376.560000   0.00000000         0.00
    HCA1   CC311D    OC301     5   109.500000   502.080000   0.00000000         0.00
    HCA1   CC3162    OC301     5   109.500000   502.080000   0.00000000         0.00
    HCA1   CC311D    OC302     5   109.500000   502.080000   0.00000000         0.00
    HCA1   CC3162    OC302     5   109.500000   502.080000   0.00000000         0.00
    HCA1   CC311C    OC301     5   109.500000   502.080000   0.00000000         0.00
    HCA1   CC3161    OC301     5   109.500000   502.080000   0.00000000         0.00
  CC322C   CC322C   CC322C     5   109.500000   485.344000   0.25610000      9338.69
  HCA2C2   CC322C   CC322C     5   111.400000   292.880000   0.21790000     18853.10
  HCA2C2   CC322C   HCA2C2     5   106.800000   322.168000   0.18020000      4518.72
  OC3C5M   CC322C   CC322C     5   111.100000   376.560000   0.00000000         0.00
  CC322C   OC3C5M   CC322C     5   111.000000   794.960000   0.00000000         0.00
  HCA2C2   CC322C   OC3C5M     5   107.300000   585.760000   0.00000000         0.00
    HCA3    CC331   CC312C     5   110.100000   279.742240   0.21790000     18853.10
  CC322C   CC312C    CC331     5   114.000000   446.432800   0.25610000      6694.40
  HCA1C2   CC312C    CC331     5   110.100000   288.696000   0.21790000     18853.10
  OC3C5M   CC312C    CC331     5   111.500000   376.560000   0.00000000         0.00
  HCA1C2   CC312C   CC322C     5   111.400000   292.880000   0.21790000     18853.10
  HCA2C2   CC322C   CC312C     5   111.400000   292.880000   0.21790000     18853.10
  CC312C   CC322C   CC322C     5   109.500000   485.344000   0.25610000      9338.69
  CC322C   CC312C   CC322C     5   109.500000   485.344000   0.25610000      9338.69
  OC3C5M   CC312C   CC322C     5   111.100000   376.560000   0.00000000         0.00
  CC312C   OC3C5M   CC322C     5   111.000000   794.960000   0.00000000         0.00
  HCA1C2   CC312C   OC3C5M     5   107.300000   585.760000   0.00000000         0.00
  HCA1C2   CC312C    OC301     5   109.500000   502.080000   0.00000000         0.00
   OC301   CC312C   CC322C     5   106.500000   376.560000   0.00000000         0.00
  CC312C    OC301    CC331     5   109.700000   794.960000   0.00000000         0.00
   OC301   CC312C   OC3C5M     5   112.000000   753.120000   0.00000000         0.00
  OC3C51   CC3152   CC3251     5   111.100000   376.560000   0.00000000         0.00
  OC3C51   CC3051   CC3251     5   111.100000   376.560000   0.00000000         0.00
  OC3C51   CC3152   CC3151     5   111.100000   376.560000   0.00000000         0.00
  OC3C51   CC3051   CC3151     5   111.100000   376.560000   0.00000000         0.00
  OC3C51   CC3153   CC3151     5   111.100000   376.560000   0.00000000         0.00
  OC3C51   CC3153    CC321     5   108.000000   376.560000   0.00000000         0.00
  OC3C51   CC3051    CC321     5   108.000000   376.560000   0.00000000         0.00
   OC311   CC3151   CC3251     5   110.100000   633.457600   0.00000000         0.00
   OC311   CC3151   CC3153     5   110.100000   633.457600   0.00000000         0.00
   OC311   CC3151   CC3152     5   110.100000   633.457600   0.00000000         0.00
   OC311   CC3151   CC3051     5   110.100000   633.457600   0.00000000         0.00
   OC311   CC3151   CC3151     5   110.100000   633.457600   0.00000000         0.00
   OC311    CC321   CC3153     5   110.100000   633.457600   0.00000000         0.00
   OC311    CC321   CC3152     5   110.100000   633.457600   0.00000000         0.00
   OC311    CC321   CC3051     5   110.100000   633.457600   0.00000000         0.00
   OC311   CC3152   CC3251     5   110.100000   633.457600   0.00000000         0.00
   OC311   CC3051   CC3251     5   110.100000   633.457600   0.00000000         0.00
   OC311   CC3152    CC321     5   110.100000   633.457600   0.00000000         0.00
   OC311   CC3051    CC321     5   110.100000   633.457600   0.00000000         0.00
   OC311   CC3152   CC3151     5   110.100000   633.457600   0.00000000         0.00
   OC311   CC3051   CC3151     5   110.100000   633.457600   0.00000000         0.00
  OC3C51   CC3152    OC311     5   116.500000   376.560000   0.00000000         0.00
  OC3C51   CC3051    OC311     5   116.500000   376.560000   0.00000000         0.00
  OC3C51   CC3152     HCA1     5   107.300000   585.760000   0.00000000         0.00
  OC3C51   CC3153     HCA1     5   107.300000   585.760000   0.00000000         0.00
   OC311   CC3152     HCA1     5   108.890000   460.240000   0.00000000         0.00
   OC311   CC3151     HCA1     5   108.890000   460.240000   0.00000000         0.00
  CC3152    OC311     HCP1     5   109.000000   418.400000   0.00000000         0.00
  CC3051    OC311     HCP1     5   109.000000   418.400000   0.00000000         0.00
  CC3151    OC311     HCP1     5   109.000000   418.400000   0.00000000         0.00
  CC3153   OC3C51   CC3152     5   111.000000   794.960000   0.00000000         0.00
  CC3153   OC3C51   CC3051     5   111.000000   794.960000   0.00000000         0.00
  CC3152   CC3251   CC3151     5   109.500000   485.344000   0.25610000      9338.69
  CC3051   CC3251   CC3151     5   109.500000   485.344000   0.25610000      9338.69
  CC3152   CC3151   CC3151     5   109.500000   485.344000   0.25610000      9338.69
  CC3051   CC3151   CC3151     5   109.500000   485.344000   0.25610000      9338.69
  CC3251   CC3151   CC3153     5   109.500000   485.344000   0.25610000      9338.69
  CC3151   CC3151   CC3153     5   109.500000   485.344000   0.25610000      9338.69
  CC3151   CC3153    CC321     5   113.500000   488.272800   0.25610000      9338.69
  CC3151   CC3051    CC321     5   113.500000   488.272800   0.25610000      9338.69
  CC3152   CC3251     HCA2     5   111.400000   292.880000   0.21790000     18853.10
  CC3051   CC3251     HCA2     5   111.400000   292.880000   0.21790000     18853.10
  CC3251   CC3152     HCA1     5   111.400000   292.880000   0.21790000     18853.10
  CC3251   CC3151     HCA1     5   111.400000   292.880000   0.21790000     18853.10
  CC3151   CC3251     HCA2     5   111.400000   292.880000   0.21790000     18853.10
  CC3153   CC3151     HCA1     5   111.400000   292.880000   0.21790000     18853.10
  CC3152   CC3151     HCA1     5   111.400000   292.880000   0.21790000     18853.10
  CC3051   CC3151     HCA1     5   111.400000   292.880000   0.21790000     18853.10
  CC3151   CC3151     HCA1     5   111.400000   292.880000   0.21790000     18853.10
  CC3151   CC3152     HCA1     5   111.400000   292.880000   0.21790000     18853.10
  CC3151   CC3153     HCA1     5   111.400000   292.880000   0.21790000     18853.10
  CC3153    CC321     HCA2     5   110.100000   279.742240   0.21790000     18853.10
  CC3152    CC321     HCA2     5   110.100000   279.742240   0.21790000     18853.10
  CC3051    CC321     HCA2     5   110.100000   279.742240   0.21790000     18853.10
   CC321   CC3153     HCA1     5   110.100000   288.696000   0.21790000     18853.10
    HCA2   CC3251     HCA2     5   106.800000   322.168000   0.18020000      4518.72
    HCA1   CC3152    OC301     5   109.500000   502.080000   0.00000000         0.00
   OC301   CC3152   CC3151     5   105.000000   376.560000   0.00000000         0.00
  CC3152    OC301    CC331     5   111.000000   794.960000   0.00000000         0.00
   OC301   CC3152   OC3C51     5   112.000000   753.120000   0.00000000         0.00
  CC321C   CC311D   CC321C     5   112.000000   488.272800   0.25610000      9338.69
  CC321D   CC311D   CC321C     5   112.000000   488.272800   0.25610000      9338.69
  CC311D   CC311D   CC321C     5   112.000000   488.272800   0.25610000      9338.69
  OC3C61   CC311D   CC311D     5   111.500000   376.560000   0.00000000         0.00
  OC3C61   CC321D   CC311D     5   111.500000   376.560000   0.00000000         0.00
    HCA1   CC311D   CC311D     5   110.100000   288.696000   0.21790000     18853.10
    HCA2   CC321D   CC311D     5   110.100000   288.696000   0.21790000     18853.10
    HCA1   CC311D   CC321D     5   110.100000   288.696000   0.21790000     18853.10
   OC30P   CC311D   CC321C     5   107.000000   376.560000   0.00000000         0.00
   OC30P   CC311D   CC311D     5   107.000000   376.560000   0.00000000         0.00
   OC30P   CC3161   CC3161     5   107.000000   376.560000   0.00000000         0.00
   OC30P   CC3161   CC3163     5   107.000000   376.560000   0.00000000         0.00
   OC30P   CC311D   CC321D     5   109.000000   376.560000   0.00000000         0.00
   OC30P   CC3162   CC3161     5   109.000000   376.560000   0.00000000         0.00
   OC30P   CC3161   CC3162     5   109.000000   376.560000   0.00000000         0.00
   OC30P    CC321   CC311C     5   107.500000   633.457600   0.00000000         0.00
   OC30P    CC321   CC3163     5   107.500000   633.457600   0.00000000         0.00
   OC30P   CC311D   OC3C61     5   110.000000   753.120000   0.00000000         0.00
   OC30P   CC3162   OC3C61     5   110.000000   753.120000   0.00000000         0.00
   OC30P    CC321     HCA2     5   109.500000   502.080000   0.00000000         0.00
   OC30P   CC3162     HCA1     5   109.500000   502.080000   0.00000000         0.00
   OC30P   CC3161     HCA1     5   109.500000   502.080000   0.00000000         0.00
   OC30P   CC311D     HCA1     5   109.500000   502.080000   0.00000000         0.00
   OC30P       PC    OC2DP     5   111.600000   827.595200   0.00000000         0.00
   OC2DP       PC    OC2DP     5   120.000000  1004.160000   0.00000000         0.00
   OC2DP       PC    OC312     5   113.230000   827.595200   0.00000000         0.00
   OC312       PC    OC312     5   104.413000   827.595200   0.00000000         0.00
   OC30P       PC    OC312     5   108.000000   402.500800   0.00000000         0.00
    HCP1    OC312       PC     5   115.000000   251.040000   0.23500000     33472.00
  CC3161    OC30P       PC     5   120.000000   167.360000   0.23300000     29288.00
  CC311D    OC30P       PC     5   120.000000   167.360000   0.23300000     29288.00
  CC3162    OC30P       PC     5   120.000000   167.360000   0.23300000     29288.00
  CC311D    OC30P       SC     5   109.000000   125.520000   0.19000000     22593.60
  CC3161    OC30P       SC     5   109.000000   125.520000   0.19000000     22593.60
   CC321    OC30P       SC     5   110.100000   125.520000   0.19000000     22593.60
   OC2DP       SC    OC2DP     5   109.470000  1087.840000   0.24500000     29288.00
   OC30P       SC    OC2DP     5    98.000000   711.280000   0.00000000         0.00
  CC311D    OC301    CC321     5   109.700000   794.960000   0.00000000         0.00
   OC301    CC321    CC331     5   111.500000   376.560000   0.00000000         0.00
   OC301   CC312D   OC3C5M     5   112.000000   753.120000   0.00000000         0.00
    HCA1   CC312D    OC301     5   109.500000   502.080000   0.00000000         0.00
   OC301   CC312D   CC322C     5   106.500000   376.560000   0.00000000         0.00
  CC312D    OC301    CC331     5   109.700000   794.960000   0.00000000         0.00
  CC311D    OC302   CC312D     5   111.500000   418.400000   0.00000000         0.00
  CC312D   OC3C5M   CC322C     5   111.000000   794.960000   0.00000000         0.00
   OC302   CC312D   OC3C5M     5   112.000000   753.120000   0.00000000         0.00
  HCA2C2   CC322C   CC312D     5   111.400000   292.880000   0.21790000     18853.10
  CC312D   CC322C   CC322C     5   109.500000   485.344000   0.25610000      9338.69
  OC3C5M   CC312D   CC322C     5   111.100000   376.560000   0.00000000         0.00
   OC302   CC312D   CC322C     5   106.500000   376.560000   0.00000000         0.00
    HCA1   CC312D    OC302     5   109.500000   502.080000   0.00000000         0.00
    HCA1   CC312D   OC3C5M     5   107.300000   585.760000   0.00000000         0.00
    HCA1   CC312D   CC322C     5   111.400000   292.880000   0.21790000     18853.10
    HCA1   CC312C   OC3C5M     5   107.300000   585.760000   0.00000000         0.00
    HCA1   CC312C   CC322C     5   111.400000   292.880000   0.21790000     18853.10
   CC321   CC312C   CC322C     5   113.000000   488.272800   0.25610000      9338.69
    HCA1   CC312C    CC321     5   110.100000   288.696000   0.21790000     18853.10
    HCA2    CC321   CC312C     5   110.100000   279.742240   0.21790000     18853.10
   OC301    CC321   CC312C     5   106.000000   376.560000   0.00000000         0.00
  OC3C5M   CC312C    CC321     5   109.000000   502.080000   0.00000000         0.00
  CC312C    OC303    CC331     5   109.700000   794.960000   0.00000000         0.00
   OC303    CC331     HCA3     5   109.500000   502.080000   0.00000000         0.00
   OC303   CC311D   CC321C     5   109.000000   376.560000   0.00000000         0.00
   OC303   CC311D   OC3C61     5   110.000000   753.120000   0.00000000         0.00
    HCA1   CC311D    OC303     5   109.500000   502.080000   0.00000000         0.00
    HCA1   CC312C    OC303     5   109.500000   502.080000   0.00000000         0.00
   OC303   CC312C   CC322C     5   110.500000   376.560000   0.00000000         0.00
  CC311D    OC303   CC312C     5   109.500000   418.400000   0.00000000         0.00
  OC3C5M   CC322C   CC312C     5   111.100000   376.560000   0.00000000         0.00
  CC311C    OC301   CC312D     5   109.200000   418.400000   0.00000000         0.00
  CC3162    OC302   CC3051     5   111.500000   418.400000   0.00000000         0.00
   OC302   CC3051   OC3C51     5   112.000000   753.120000   0.00000000         0.00
   OC302   CC3051    CC321     5   110.100000   633.457600   0.00000000         0.00
   OC302   CC3051   CC3151     5   105.000000   376.560000   0.00000000         0.00
    HCA1   CC3162    OC303     5   109.500000   502.080000   0.00000000         0.00
   OC303   CC3162   OC3C61     5   112.000000   753.120000   0.00000000         0.00
   OC303   CC3162   CC3161     5   105.000000   376.560000   0.00000000         0.00
  CC3162    OC303   CC3151     5   109.500000   418.400000   0.00000000         0.00
   OC303   CC3151   CC3153     5   110.500000   376.560000   0.00000000         0.00
   OC303   CC3151   CC3151     5   110.500000   376.560000   0.00000000         0.00
   OC303   CC3151     HCA1     5   109.500000   502.080000   0.00000000         0.00
   OC303   CC3151   CC3051     5   110.500000   376.560000   0.00000000         0.00
  CC3051    CC321    OC301     5   106.000000   376.560000   0.00000000         0.00
   CC321    OC301   CC3051     5   112.200000   794.960000   0.00000000         0.00
   OC301   CC3051   OC3C51     5   112.000000   753.120000   0.00000000         0.00
   OC301   CC3051    CC321     5   110.100000   633.457600   0.00000000         0.00
   OC301   CC3051   CC3151     5   106.500000   376.560000   0.00000000         0.00
  CC3153    CC321    OC301     5   106.000000   376.560000   0.00000000         0.00
  CC3152    OC301    CC321     5   111.000000   794.960000   0.00000000         0.00
  CC3161    OC301   CC3152     5   109.200000   418.400000   0.00000000         0.00
   OC301   CC3161   CC3263     5   109.000000   376.560000   0.00000000         0.00
  CC3162    OC30P       SC     5   109.000000   125.520000   0.19000000     22593.60
   CC321    OC301   CC3062     5   109.700000   794.960000   0.00000000         0.00
   OC301    CC312    CC312     5   106.000000   376.560000   0.00000000         0.00
   OC301    CC312    CC322     5   106.000000   376.560000   0.00000000         0.00
   CC312    OC301   CC3062     5   109.700000   794.960000   0.00000000         0.00
   OC301    CC312     HCA1     5   109.500000   502.080000   0.00000000         0.00
   OC301    CC322     HCA2     5   109.500000   502.080000   0.00000000         0.00
   OC301    CC322    CC312     5   106.000000   376.560000   0.00000000         0.00
   CC322    OC301   CC3062     5   109.700000   794.960000   0.00000000         0.00
  CC3162   CC3161   CC3261     5   111.000000   446.432800   0.25610000      6694.40
  CC3161   CC3261   CC3161     5   111.000000   446.432800   0.25610000      6694.40
  CC3261   CC3161   CC3163     5   111.000000   446.432800   0.25610000      6694.40
  CC3261   CC3161    OC301     5   110.100000   633.457600   0.00000000         0.00
   CC331    CC2O5    OC301     5   109.000000   460.240000   0.23260000     16736.00
   CC331    CC2O5    OC2D1     5   125.000000   585.760000   0.24420000     16736.00
   CC2O5    CC331     HCA3     5   109.500000   276.144000   0.21630000     25104.00
   OC2D1    CC2O5    OC301     5   125.900000   753.120000   0.22576000    133888.00
   CC2O5    OC301   CC3161     5   109.600000   334.720000   0.22651000     25104.00
   OC2DP       SC    NC311     5   103.000000   711.280000   0.00000000         0.00
      SC    NC311     HCP1     5   118.000000   401.664000   0.00000000         0.00
  CC3161    NC311     HCP1     5   111.000000   401.664000   0.00000000         0.00
      SC    NC311   CC3161     5   113.000000   418.400000   0.00000000         0.00
  CC3161   CC3161    NC311     5   109.000000   435.136000   0.00000000         0.00
  CC3162   CC3161    NC311     5   109.000000   435.136000   0.00000000         0.00
   NC311   CC3161     HCA1     5   109.500000   301.248000   0.00000000         0.00
     CN7      CN8      CN8     5   113.600000   488.272800   0.25610000      9338.69
     CN8      CN7      CN8     5   113.600000   488.272800   0.25610000      9338.69
     CN8      CN8      CN8     5   113.600000   488.272800   0.25610000      9338.69
     HN1      NN6      CN8     5   109.500000   251.040000   0.20740000     16736.00
     NN6      CN8      HN8     5   107.500000   376.560000   0.21010000     29288.00
     CN7      CN8      ON2     5   109.700000   962.320000   0.00000000         0.00
     NN6      CN8      CN8     5   110.000000   566.513600   0.00000000         0.00
     HN1      NN6      HN1     5   109.500000   368.192000   0.00000000         0.00
     ON2      CN8      CN8     5   109.700000   962.320000   0.00000000         0.00
     CN7      ON6     CN8B     5   109.000000   920.480000   0.00000000         0.00
     ON6     CN8B      CN8     5   106.000000   753.120000   0.00000000         0.00
    CN8B      CN8      CN7     5   106.000000   669.440000   0.00000000         0.00
     ON6     CN8B      HN8     5   107.240000   378.233600   0.00000000         0.00
     HN8     CN8B      CN8     5   110.100000   288.947040   0.21790000     18853.10
     HN8      CN8     CN8B     5   110.100000   288.947040   0.21790000     18853.10
     CN2     NN3A      CN4     5   117.800000   753.120000   0.00000000         0.00
    NN3A      CN4     NN3A     5   133.000000   502.080000   0.00000000         0.00
     CN4     NN3A      CN5     5   110.100000   753.120000   0.00000000         0.00
     CN5      CN5     NN3A     5   127.400000   502.080000   0.00000000         0.00
     CN2      CN5      CN5     5   121.000000   502.080000   0.00000000         0.00
     CN5      CN2     NN3A     5   110.700000   502.080000   0.00000000         0.00
     CN5      CN5      NN2     5   105.700000   836.800000   0.00000000         0.00
     CN5      CN5      NN4     5   110.000000   836.800000   0.00000000         0.00
     CN4      NN4      CN5     5   104.600000  1004.160000   0.00000000         0.00
     NN2      CN4      NN4     5   113.400000   836.800000   0.00000000         0.00
     CN4      NN2      CN5     5   106.300000   836.800000   0.00000000         0.00
     NN2      CN5     NN3A     5   126.900000   836.800000   0.00000000         0.00
     CN2      CN5      NN4     5   129.000000   836.800000   0.00000000         0.00
     HN3      CN4     NN3A     5   113.500000   317.984000   0.00000000         0.00
    NN3A      CN2      NN1     5   130.700000   418.400000   0.00000000         0.00
     CN5      CN2      NN1     5   118.600000   418.400000   0.00000000         0.00
     CN2      NN1      HN1     5   121.500000   334.720000   0.00000000         0.00
     HN1      NN1      HN1     5   117.000000   259.408000   0.00000000         0.00
     NN4      CN4      HN3     5   124.800000   326.352000   0.00000000         0.00
     NN2      CN4      HN3     5   121.800000   326.352000   0.00000000         0.00
     CN5      NN2      HN2     5   129.400000   251.040000   0.00000000         0.00
     CN4      NN2      HN2     5   125.000000   251.040000   0.00000000         0.00
     CN1     NN2G      CN2     5   131.100000   585.760000   0.00000000         0.00
    NN2G      CN2     NN3G     5   122.200000   585.760000   0.00000000         0.00
     CN2     NN3G      CN5     5   109.400000   753.120000   0.00000000         0.00
    CN5G      CN5     NN3G     5   129.900000   585.760000   0.00000000         0.00
     CN1     CN5G      CN5     5   119.600000   585.760000   0.00000000         0.00
    CN5G      CN1     NN2G     5   107.800000   585.760000   0.00000000         0.00
    CN5G      CN5     NN2B     5   104.600000   836.800000   0.00000000         0.00
     CN5     CN5G      NN4     5   111.400000   836.800000   0.00000000         0.00
     CN4      NN4     CN5G     5   103.800000  1004.160000   0.00000000         0.00
    NN2B      CN4      NN4     5   113.000000   836.800000   0.00000000         0.00
     CN4     NN2B      CN5     5   107.200000   836.800000   0.00000000         0.00
    NN2B      CN5     NN3G     5   125.500000  1171.520000   0.00000000         0.00
     CN1     CN5G      NN4     5   129.000000  1046.000000   0.00000000         0.00
     CN1     NN2G      HN2     5   113.300000   376.560000   0.00000000         0.00
     CN2     NN2G      HN2     5   115.600000   376.560000   0.00000000         0.00
     NN1      CN2     NN2G     5   115.400000   794.960000   0.00000000         0.00
     NN1      CN2     NN3G     5   122.400000   794.960000   0.00000000         0.00
    NN2G      CN1      ON1     5   127.500000   418.400000   0.00000000         0.00
    CN5G      CN1      ON1     5   124.700000   418.400000   0.00000000         0.00
     HN3      CN4     NN2B     5   122.200000   334.720000   0.00000000         0.00
     CN4     NN2B      HN2     5   124.600000   251.040000   0.00000000         0.00
     CN5     NN2B      HN2     5   129.300000   251.040000   0.00000000         0.00
     CN1      NN2      CN3     5   124.100000   418.400000   0.00000000         0.00
     NN2      CN1      NN3     5   116.800000   418.400000   0.00000000         0.00
     CN1      NN3      CN2     5   119.100000   711.280000   0.00000000         0.00
     CN3      CN2      NN3     5   119.300000   711.280000   0.00000000         0.00
     CN2      CN3      CN3     5   117.800000   711.280000   0.00000000         0.00
     CN3      CN3      NN2     5   122.900000   711.280000   0.00000000         0.00
     CN1      NN2      HN2     5   121.200000   309.616000   0.00000000         0.00
     CN3      NN2      HN2     5   114.700000   309.616000   0.00000000         0.00
     NN2      CN1     ON1C     5   119.400000  1087.840000   0.00000000         0.00
     NN3      CN1     ON1C     5   123.800000  1087.840000   0.00000000         0.00
     NN3      CN2      NN1     5   122.300000   677.808000   0.00000000         0.00
     CN3      CN2      NN1     5   118.400000   677.808000   0.00000000         0.00
     CN2      CN3      HN3     5   120.100000   317.984000   0.00000000         0.00
     CN3      CN3      HN3     5   122.100000   317.984000   0.00000000         0.00
     HN3      CN3      NN2     5   115.000000   368.192000   0.00000000         0.00
    CN1T     NN2B      CN3     5   122.000000   585.760000   0.00000000         0.00
    NN2B     CN1T     NN2U     5   114.000000   418.400000   0.00000000         0.00
    CN1T     NN2U      CN1     5   130.200000   418.400000   0.00000000         0.00
    NN2U      CN1      CN3     5   112.600000   585.760000   0.00000000         0.00
     CN1      CN3      CN3     5   117.600000   836.800000   0.00000000         0.00
     CN3      CN3     NN2B     5   123.600000   836.800000   0.00000000         0.00
    CN1T     NN2B      HN2     5   122.000000   338.904000   0.00000000         0.00
     CN3     NN2B      HN2     5   116.000000   267.776000   0.00000000         0.00
    NN2B     CN1T      ON1     5   121.600000   836.800000   0.00000000         0.00
    NN2U     CN1T      ON1     5   124.400000   836.800000   0.00000000         0.00
    CN1T     NN2U      HN2     5   114.400000   338.904000   0.00000000         0.00
     CN1     NN2U      HN2     5   115.400000   338.904000   0.00000000         0.00
    NN2U      CN1      ON1     5   121.900000   836.800000   0.00000000         0.00
     CN3      CN1      ON1     5   125.500000   836.800000   0.00000000         0.00
     CN1      CN3      HN3     5   120.300000   251.040000   0.00000000         0.00
     HN3      CN3     NN2B     5   114.300000   251.040000   0.00000000         0.00
    CN3T      CN1     NN2U     5   113.500000   585.760000   0.00000000         0.00
     CN1     CN3T      CN3     5   116.700000  1004.160000   0.00000000         0.00
    CN3T      CN3     NN2B     5   123.600000  1004.160000   0.00000000         0.00
    CN3T      CN1      ON1     5   124.600000   836.800000   0.00000000         0.00
     CN1     CN3T      CN9     5   118.700000   317.984000   0.00000000         0.00
     CN3     CN3T      CN9     5   124.600000   317.984000   0.00000000         0.00
    CN3T      CN3      HN3     5   122.100000   251.040000   0.00000000         0.00
    CN1T     NN2B      CN9     5   116.000000   585.760000   0.00000000         0.00
     CN3     NN2B      CN9     5   122.000000   585.760000   0.00000000         0.00
     CN1      NN2      CN9     5   115.400000   585.760000   0.00000000         0.00
     CN3      NN2      CN9     5   120.500000   585.760000   0.00000000         0.00
     CN5      NN2      CN9     5   125.900000   585.760000   0.00000000         0.00
     CN4      NN2      CN9     5   127.800000   585.760000   0.00000000         0.00
     CN5     NN2B      CN9     5   125.900000   585.760000   0.00000000         0.00
     CN4     NN2B      CN9     5   126.900000   585.760000   0.00000000         0.00
     CN5     NN2B      CN8     5   125.900000   585.760000   0.00000000         0.00
     CN4     NN2B      CN8     5   126.900000   585.760000   0.00000000         0.00
    NN2B      CN8      CN9     5   113.700000   585.760000   0.00000000         0.00
    CN1T     NN2B     CN7B     5   118.400000   376.560000   0.00000000         0.00
     CN3     NN2B     CN7B     5   119.600000   376.560000   0.00000000         0.00
     CN1      NN2     CN7B     5   120.000000   376.560000   0.00000000         0.00
     CN3      NN2     CN7B     5   115.900000   376.560000   0.00000000         0.00
     CN5      NN2     CN7B     5   126.100000   376.560000   0.00000000         0.00
     CN4      NN2     CN7B     5   127.600000   376.560000   0.00000000         0.00
     CN5     NN2B     CN7B     5   126.500000   376.560000   0.00000000         0.00
     CN4     NN2B     CN7B     5   126.300000   376.560000   0.00000000         0.00
     ON6     CN7B      NN2     5   108.000000   920.480000   0.00000000         0.00
    ON6B     CN7B      NN2     5   112.000000   920.480000   0.00000000         0.00
     CN8     CN7B      NN2     5   113.700000   920.480000   0.00000000         0.00
    CN7B     CN7B      NN2     5   111.000000   920.480000   0.00000000         0.00
     ON6     CN7B     NN2B     5   108.000000   920.480000   0.00000000         0.00
    ON6B     CN7B     NN2B     5   112.000000   920.480000   0.00000000         0.00
     CN8     CN7B     NN2B     5   113.700000   920.480000   0.00000000         0.00
    CN7B     CN7B     NN2B     5   111.000000   920.480000   0.00000000         0.00
     HN7     CN7B      NN2     5   111.000000   359.824000   0.00000000         0.00
     HN7     CN7B     NN2B     5   111.000000   359.824000   0.00000000         0.00
     CN9      CN8      HN8     5   110.100000   289.532800   0.21790000     18853.10
     CN9      CN7      HN7     5   110.100000   289.532800   0.21790000     18853.10
     HN8      CN8      NN2     5   110.100000   279.742240   0.00000000         0.00
     HN8      CN8      ON5     5   108.890000   384.091200   0.00000000         0.00
     CN3      CN9      HN9     5   110.100000   279.742240   0.21790000     18853.10
    CN3T      CN9      HN9     5   110.100000   279.742240   0.21790000     18853.10
     CN8      CN9      HN9     5   110.100000   289.532800   0.21790000     18853.10
     HN9      CN9      CN7     5   110.100000   279.742240   0.21790000     18853.10
     HN9      CN9      NN2     5   110.100000   279.742240   0.00000000         0.00
     HN9      CN9     NN2B     5   110.100000   279.742240   0.00000000         0.00
     HN8      CN8     NN2B     5   110.100000   279.742240   0.00000000         0.00
     HN9      CN9      ON2     5   109.500000   502.080000   0.00000000         0.00
     CN9      ON2        P     5   120.000000   167.360000   0.23300000     29288.00
     HN4      ON4        P     5   115.000000   251.040000   0.23500000     33472.00
     HN4      ON4       P2     5   115.000000   251.040000   0.23500000     33472.00
     HN5      ON5      CN8     5   106.000000   481.160000   0.00000000         0.00
     HN5      ON5      CN9     5   106.000000   481.160000   0.00000000         0.00
     ON2        P      ON2     5   104.300000   669.440000   0.00000000         0.00
     ON2       P2      ON2     5   104.300000   669.440000   0.00000000         0.00
     ON2        P      ON4     5   108.000000   402.500800   0.00000000         0.00
     ON2       P2      ON4     5   108.000000   402.500800   0.00000000         0.00
     ON3        P      ON4     5   108.230000   827.595200   0.00000000         0.00
     ON3       P2      ON4     5   108.230000   827.595200   0.00000000         0.00
     ON4        P      ON4     5   104.000000   827.595200   0.00000000         0.00
     ON4       P2      ON4     5   104.000000   827.595200   0.00000000         0.00
     CN7      CN8      ON5     5   110.100000   633.457600   0.00000000         0.00
     HN9      CN9      HN9     5   108.400000   297.064000   0.18020000      4518.72
     CN7      ON6     CN7B     5   108.000000   920.480000   0.00000000         0.00
     ON6     CN7B      CN8     5   102.000000   753.120000   0.00000000         0.00
    CN7B      CN8      CN7     5   100.000000   669.440000   0.00000000         0.00
     CN8      CN7      CN7     5   102.000000   502.080000   0.25610000      6694.40
     CN9      CN7      CN7     5   102.000000   502.080000   0.25610000      6694.40
     CN7      CN7      ON6     5   104.000000   836.800000   0.00000000         0.00
     HN7      CN7      ON6     5   107.240000   378.233600   0.00000000         0.00
     HN7     CN7B      ON6     5   107.240000   378.233600   0.00000000         0.00
     HN7      CN7      CN7     5   108.000000   334.720000   0.00000000         0.00
    CN7B      CN8      HN8     5   110.100000   279.491200   0.21790000     18853.10
     CN8     CN7B      HN7     5   110.100000   279.491200   0.21790000     18853.10
     HN7      CN7      CN8     5   110.100000   288.696000   0.21790000     18853.10
     HN8      CN8      CN7     5   110.100000   288.947040   0.21790000     18853.10
     HN8      CN8      CN8     5   110.100000   288.947040   0.21790000     18853.10
     HN8      CN8      HN8     5   109.000000   297.064000   0.18020000      4518.72
     HN7      CN7      HN7     5   109.000000   297.064000   0.18020000      4518.72
     CN7     ON6B     CN7B     5   115.000000   920.480000   0.00000000         0.00
     CN7      CN7     ON6B     5   110.000000   836.800000   0.00000000         0.00
    ON6B     CN7B     CN7B     5   106.000000   753.120000   0.00000000         0.00
    CN7B     CN7B      CN7     5    96.000000   920.480000   0.00000000         0.00
    CN7B      CN7      CN7     5   100.000000   502.080000   0.25610000      6694.40
     HN7      CN7     ON6B     5   107.240000   378.233600   0.00000000         0.00
     HN7     CN7B     ON6B     5   107.240000   378.233600   0.00000000         0.00
    CN7B     CN7B      HN7     5   110.100000   279.491200   0.21790000     18853.10
     HN7     CN7B      HN7     5   109.000000   297.064000   0.18020000      4518.72
     ON6      CN7     CN8B     5   108.200000   753.120000   0.00000000         0.00
     ON6      CN7      CN9     5   108.200000   753.120000   0.00000000         0.00
     CN7      CN7     CN8B     5   110.000000   376.560000   0.00000000         0.00
     CN8      CN7     CN8B     5   113.600000   488.272800   0.25610000      9338.69
     CN7     CN8B      ON2     5   108.400000   585.760000   0.00000000         0.00
     CN7      CN7      ON2     5   109.700000   962.320000   0.00000000         0.00
    CN7B     CN7B      ON2     5   109.700000   962.320000   0.00000000         0.00
     CN8      CN7      ON2     5   109.700000   962.320000   0.00000000         0.00
    CN8B      ON2        P     5   120.000000   167.360000   0.23300000     29288.00
    CN8B      ON2       P2     5   120.000000   167.360000   0.23300000     29288.00
     CN7      ON2        P     5   120.000000   167.360000   0.23300000     29288.00
     CN7      ON2       P2     5   120.000000   167.360000   0.23300000     29288.00
    CN7B      ON2        P     5   120.000000   167.360000   0.23300000     29288.00
    CN7B      ON2       P2     5   120.000000   167.360000   0.23300000     29288.00
     HN7      CN7     CN8B     5   110.100000   288.696000   0.21790000     18853.10
     HN8     CN8B      ON2     5   109.500000   502.080000   0.00000000         0.00
     HN5      ON5     CN8B     5   106.000000   481.160000   0.00000000         0.00
     HN8     CN8B      HN8     5   109.000000   297.064000   0.18020000      4518.72
     HN8     CN8B      CN7     5   110.100000   288.947040   0.21790000     18853.10
     HN7      CN7      ON2     5   109.500000   502.080000   0.00000000         0.00
     HN7     CN7B      ON2     5   109.500000   502.080000   0.00000000         0.00
     CN7     CN8B      ON5     5   110.100000   633.457600   0.00000000         0.00
    CN8B      CN7      ON5     5   108.200000   753.120000   0.00000000         0.00
     HN8     CN8B      ON5     5   108.890000   384.091200   0.00000000         0.00
     ON5      CN7      CN8     5   110.000000   633.457600   0.00000000         0.00
     ON5      CN7      CN7     5   110.100000   633.457600   0.00000000         0.00
     HN7      CN7      ON5     5   109.500000   502.080000   0.00000000         0.00
     HN5      ON5      CN7     5   109.000000   481.160000   0.00000000         0.00
    ON6B      CN7     CN8B     5   108.200000   753.120000   0.00000000         0.00
    ON6B      CN7      CN9     5   108.200000   753.120000   0.00000000         0.00
     ON2      CN7     CN7B     5   110.000000   753.120000   0.00000000         0.00
     ON5      CN7     CN7B     5   110.000000   753.120000   0.00000000         0.00
     ON5     CN7B     CN7B     5   108.400000   669.440000   0.00000000         0.00
     ON5     CN7B      CN7     5   108.000000   753.120000   0.00000000         0.00
     HN7     CN7B      ON5     5   109.500000   502.080000   0.00000000         0.00
     HN5      ON5     CN7B     5   109.000000   481.160000   0.00000000         0.00
     HN7     CN7B      CN7     5   110.100000   288.947040   0.21790000     18853.10
     HN7      CN7     CN7B     5   110.100000   288.947040   0.21790000     18853.10
     CN8      ON2        P     5   120.000000   167.360000   0.23300000     29288.00
     CN8      ON2       P2     5   120.000000   167.360000   0.23300000     29288.00
     ON2        P      ON3     5   111.600000   827.595200   0.00000000         0.00
     ON2       P2      ON3     5   111.600000   827.595200   0.00000000         0.00
     ON3        P      ON3     5   120.000000  1004.160000   0.00000000         0.00
     ON3       P2      ON3     5   120.000000  1004.160000   0.00000000         0.00
     HN8      CN8      ON2     5   109.500000   502.080000   0.00000000         0.00
     ON5        P      ON3     5   111.600000   827.595200   0.00000000         0.00
     ON6     CN7B      CN7     5   106.250000  1004.160000   0.00000000         0.00
    CN7B      CN7      CN8     5   113.600000   488.272800   0.25610000      9338.69
       P      ON2        P     5   140.000000   125.520000   0.28000000    -33472.00
     CN9      ON2       P3     5   120.000000   167.360000   0.23300000     29288.00
      P3      ON2        P     5   140.000000   125.520000   0.28000000    -33472.00
      P4      ON2        P     5   140.000000   376.560000   0.31500000     33472.00
      P3      ON2       P3     5   140.000000   125.520000   0.28000000    -33472.00
     HN4      ON4       P4     5   120.000000   251.040000   0.23500000     33472.00
     ON2       P4      ON4     5   100.000000   402.500800   0.00000000         0.00
     ON3       P4      ON4     5   108.230000   827.595200   0.00000000         0.00
     ON2       P3      ON2     5   104.300000   669.440000   0.00000000         0.00
     ON2       P3      ON3     5   111.600000   743.915200   0.00000000         0.00
     ON2       P4      ON3     5   105.000000   743.915200   0.00000000         0.00
     ON3       P3      ON3     5   120.000000   870.272000   0.00000000         0.00
     ON3       P4      ON3     5   120.000000   870.272000   0.00000000         0.00
     OBL       CL     CTL3     5   125.000000   585.760000   0.24420000     16736.00
     OBL       CL     CTL2     5   125.000000   585.760000   0.24420000     16736.00
     OBL       CL     CTL1     5   125.000000   585.760000   0.24420000     16736.00
     OSL       CL      OBL     5   125.900000   753.120000   0.22576000    133888.00
      CL      OSL     CTL1     5   109.600000   334.720000   0.22651000     25104.00
      CL      OSL     CTL2     5   109.600000   334.720000   0.22651000     25104.00
      CL      OSL     CTL3     5   109.600000   334.720000   0.22651000     25104.00
    HAL2     CTL2       CL     5   109.500000   276.144000   0.21630000     25104.00
    HAL3     CTL3       CL     5   109.500000   276.144000   0.21630000     25104.00
    CTL2     CTL2       CL     5   108.000000   435.136000   0.00000000         0.00
    CTL2     CTL1      CCL     5   108.000000   435.136000   0.00000000         0.00
    CTL3     CTL2       CL     5   108.000000   435.136000   0.00000000         0.00
     OSL       CL     CTL3     5   109.000000   460.240000   0.23260000     16736.00
     OSL       CL     CTL2     5   109.000000   460.240000   0.23260000     16736.00
     OSL       CL     CTL1     5   109.000000   460.240000   0.23260000     16736.00
     OHL       CL      OBL     5   123.000000   418.400000   0.22620000    175728.00
     OCL       CL     CTL2     5   118.000000   334.720000   0.23880000     41840.00
     OCL       CL     CTL3     5   118.000000   334.720000   0.23880000     41840.00
     OCL       CL      OCL     5   124.000000   836.800000   0.22250000     58576.00
     OCL      CCL      OCL     5   124.000000   836.800000   0.22250000     58576.00
     OCL      CCL     CTL1     5   118.000000   334.720000   0.23880000     41840.00
     OHL       CL     CTL3     5   110.500000   460.240000   0.00000000         0.00
     OHL       CL     CTL2     5   110.500000   460.240000   0.00000000         0.00
     HOL      OHL       CL     5   115.000000   460.240000   0.00000000         0.00
     OSL     CTL1     CTL1     5   110.100000   633.457600   0.00000000         0.00
     OSL     CTL1     CTL2     5   110.100000   633.457600   0.00000000         0.00
     OSL     CTL1     CTL3     5   110.100000   633.457600   0.00000000         0.00
     OSL     CTL2     CTL1     5   110.100000   633.457600   0.00000000         0.00
     OSL     CTL2     CTL2     5   110.100000   633.457600   0.00000000         0.00
     OSL     CTL2     CTL3     5   110.100000   633.457600   0.00000000         0.00
    OSLP     CTL1     CTL1     5   110.100000   633.457600   0.00000000         0.00
    OSLP     CTL1     CTL2     5   110.100000   633.457600   0.00000000         0.00
    OSLP     CTL1     CTL3     5   110.100000   633.457600   0.00000000         0.00
    OSLP     CTL2     CTL1     5   110.100000   633.457600   0.00000000         0.00
    OSLP     CTL2     CTL2     5   110.100000   633.457600   0.00000000         0.00
    OSLP     CTL2     CTL3     5   110.100000   633.457600   0.00000000         0.00
    HAL2     CTL2     HAL2     5   109.000000   297.064000   0.18020000      4518.72
    HAL3     CTL3     HAL3     5   108.400000   297.064000   0.18020000      4518.72
    HAL1     CTL1      OSL     5   109.500000   502.080000   0.00000000         0.00
    HAL2     CTL2      OSL     5   109.500000   502.080000   0.00000000         0.00
    HAL3     CTL3      OSL     5   109.500000   502.080000   0.00000000         0.00
    HAL1     CTL1     OSLP     5   109.500000   502.080000   0.00000000         0.00
    HAL2     CTL2     OSLP     5   109.500000   502.080000   0.00000000         0.00
    HAL3     CTL3     OSLP     5   109.500000   502.080000   0.00000000         0.00
    CTL1      OSL       PL     5   120.000000   167.360000   0.23300000     29288.00
    CTL2      OSL       PL     5   120.000000   167.360000   0.23300000     29288.00
    CTL3      OSL       PL     5   120.000000   167.360000   0.23300000     29288.00
    CTL1     OSLP       PL     5   120.000000   167.360000   0.23300000     29288.00
    CTL2     OSLP       PL     5   120.000000   167.360000   0.23300000     29288.00
    CTL3     OSLP       PL     5   120.000000   167.360000   0.23300000     29288.00
     HOL      OHL       PL     5   115.000000   251.040000   0.23000000     33472.00
     OSL       PL      OSL     5   104.300000   669.440000   0.00000000         0.00
     OSL       PL      O2L     5   111.600000   827.595200   0.00000000         0.00
     OSL       PL      OHL     5   108.000000   402.500800   0.00000000         0.00
    OSLP       PL     OSLP     5   104.300000   669.440000   0.00000000         0.00
    OSLP       PL      O2L     5   111.600000   827.595200   0.00000000         0.00
    OSLP       PL      OHL     5   108.000000   402.500800   0.00000000         0.00
     O2L       PL      O2L     5   120.000000  1004.160000   0.00000000         0.00
     O2L       PL      OHL     5   108.230000   827.595200   0.00000000         0.00
     NTL     CTL2       HL     5   109.500000   334.720000   0.21300000     22593.60
     NTL     CTL5       HL     5   109.500000   334.720000   0.21300000     22593.60
      HL     CTL2       HL     5   109.500000   200.832000   0.17670000     23430.40
      HL     CTL5       HL     5   109.500000   200.832000   0.17670000     23430.40
    CTL2      NTL     CTL2     5   109.500000   502.080000   0.24660000     21756.80
    CTL5      NTL     CTL2     5   109.500000   502.080000   0.24660000     21756.80
    CTL5      NTL     CTL5     5   109.500000   502.080000   0.24660000     21756.80
      HL     CTL2     CTL2     5   110.100000   279.742240   0.21790000     18853.10
      HL     CTL2     CTL3     5   110.100000   279.742240   0.21790000     18853.10
    HAL1     CTL1     CTL1     5   110.100000   288.696000   0.21790000     18853.10
    HAL1     CTL1     CTL2     5   110.100000   288.696000   0.21790000     18853.10
    HAL1     CTL1     CTL3     5   110.100000   288.696000   0.21790000     18853.10
    HAL2     CTL2     CTL1     5   110.100000   221.752000   0.21790000     18853.10
    HAL2     CTL2     CTL2     5   110.100000   221.752000   0.21790000     18853.10
    HAL2     CTL2     CTL3     5   110.100000   289.532800   0.21790000     18853.10
    HAL3     CTL3     CTL1     5   110.100000   279.742240   0.21790000     18853.10
    HAL3     CTL3     CTL2     5   110.100000   289.532800   0.21790000     18853.10
    HAL3     CTL3     CTL3     5   110.100000   313.800000   0.21790000     18853.10
     HBL     CTL1      CCL     5   109.500000   418.400000   0.00000000         0.00
     HBL     CTL1     CTL2     5   111.000000   292.880000   0.00000000         0.00
     NTL     CTL2     CTL2     5   115.000000   566.513600   0.00000000         0.00
     NTL     CTL2     CTL3     5   115.000000   566.513600   0.00000000         0.00
     HCL     NH3L     CTL2     5   109.500000   276.144000   0.20560000      3347.20
     HCL     NH3L     CTL1     5   109.500000   251.040000   0.20740000     16736.00
     HCL     NH3L      HCL     5   109.500000   343.088000   0.00000000         0.00
    NH3L     CTL2     CTL2     5   110.000000   566.513600   0.00000000         0.00
    NH3L     CTL2     HAL2     5   107.500000   376.560000   0.20836000     29288.00
    CTL1     CTL1     CTL1     5   111.000000   446.432800   0.25610000      6694.40
    NH3L     CTL1      CCL     5   110.000000   365.681600   0.00000000         0.00
    NH3L     CTL1     CTL2     5   110.000000   566.513600   0.00000000         0.00
    NH3L     CTL1      HBL     5   107.500000   430.952000   0.00000000         0.00
    CTL1     CTL1     CTL2     5   113.500000   488.272800   0.25610000      9338.69
    CTL1     CTL1     CTL3     5   108.500000   446.432800   0.25610000      6694.40
    CTL1     CTL2     CTL1     5   113.500000   488.272800   0.25610000      9338.69
    CTL1     CTL2     CTL2     5   113.500000   488.272800   0.25610000      9338.69
    CTL1     CTL2     CTL3     5   113.500000   488.272800   0.25610000      9338.69
    CTL2     CTL1     CTL2     5   113.500000   488.272800   0.25610000      9338.69
    CTL2     CTL1     CTL3     5   113.500000   488.272800   0.25610000      9338.69
    CTL2     CTL2     CTL2     5   113.600000   488.272800   0.25610000      9338.69
    CTL2     CTL2     CTL3     5   115.000000   485.344000   0.25610000      6694.40
    CTL3     CTL1     CTL3     5   113.500000   488.272800   0.25610000      9338.69
     HOL      OHL     CTL1     5   106.000000   481.160000   0.00000000         0.00
     HOL      OHL     CTL2     5   106.000000   481.160000   0.00000000         0.00
     HOL      OHL     CTL3     5   106.000000   481.160000   0.00000000         0.00
     OHL     CTL1     CTL1     5   110.100000   633.457600   0.00000000         0.00
     OHL     CTL1     CTL2     5   110.100000   633.457600   0.00000000         0.00
     OHL     CTL2     CTL1     5   110.100000   633.457600   0.00000000         0.00
     OHL     CTL2     CTL2     5   110.100000   633.457600   0.00000000         0.00
     OHL     CTL2     CTL3     5   110.100000   633.457600   0.00000000         0.00
     OHL     CTL1     HAL1     5   108.890000   384.091200   0.00000000         0.00
     OHL     CTL2     HAL2     5   108.890000   384.091200   0.00000000         0.00
     OHL     CTL3     HAL3     5   108.890000   384.091200   0.00000000         0.00
     O2L       SL      O2L     5   109.470000  1087.840000   0.24500000     29288.00
     O2L       SL      OSL     5    98.000000   711.280000   0.00000000         0.00
    CTL2      OSL       SL     5   109.000000   125.520000   0.19000000     22593.60
    CTL3      OSL       SL     5   109.000000   125.520000   0.19000000     22593.60
    CEL1     CEL1     CTL2     5   123.500000   401.664000   0.00000000         0.00
    CEL1     CEL1     CTL3     5   123.500000   401.664000   0.00000000         0.00
    CEL2     CEL1     CTL2     5   126.000000   401.664000   0.00000000         0.00
    CEL2     CEL1     CTL3     5   125.200000   393.296000   0.00000000         0.00
    HEL1     CEL1     CEL1     5   119.500000   435.136000   0.00000000         0.00
    HEL1     CEL1     CEL2     5   118.000000   351.456000   0.00000000         0.00
    HEL1     CEL1     CTL2     5   116.000000   334.720000   0.00000000         0.00
    HEL1     CEL1     CTL3     5   117.000000   184.096000   0.00000000         0.00
    HEL2     CEL2     CEL1     5   120.500000   376.560000   0.00000000         0.00
    HEL2     CEL2     CEL2     5   120.500000   464.424000   0.00000000         0.00
    HEL2     CEL2     HEL2     5   119.000000   158.992000   0.00000000         0.00
    CEL1     CTL2     CTL2     5   112.200000   267.776000   0.00000000         0.00
    CEL1     CTL2     CTL3     5   112.200000   267.776000   0.00000000         0.00
    HAL2     CTL2     CEL1     5   111.500000   376.560000   0.00000000         0.00
    HAL3     CTL3     CEL1     5   111.500000   351.456000   0.00000000         0.00
    CEL1     CTL2     CEL1     5   114.000000   251.040000   0.00000000         0.00
   HCA1A    CC31A    CC31A     5   110.100000   288.696000   0.21790000     18853.10
   HCA1A    CC31A    CC32A     5   110.100000   288.696000   0.21790000     18853.10
   HCA1A    CC31A    CC33A     5   110.100000   288.696000   0.21790000     18853.10
   HCA2A    CC32A    CC30A     5   110.100000   221.752000   0.21790000     18853.10
   HCA2A    CC32A    CC31A     5   110.100000   221.752000   0.21790000     18853.10
   HCA2A    CC32A    CC32A     5   110.100000   221.752000   0.21790000     18853.10
   HCA2A    CC32A    CC33A     5   110.100000   289.532800   0.21790000     18853.10
   HCA3A    CC33A    CC30A     5   110.100000   279.742240   0.21790000     18853.10
   HCA3A    CC33A    CC31A     5   110.100000   279.742240   0.21790000     18853.10
   HCA3A    CC33A    CC32A     5   110.100000   289.532800   0.21790000     18853.10
   HCA3A    CC33A    CC33A     5   110.100000   313.800000   0.21790000     18853.10
   HCA2A    CC32A    HCA2A     5   109.000000   297.064000   0.18020000      4518.72
   HCA3A    CC33A    HCA3A     5   108.400000   297.064000   0.18020000      4518.72
   CC30A    CC32A    CC32A     5   113.500000   488.272800   0.25610000      9338.69
   CC30A    CC32A    CC33A     5   113.500000   488.272800   0.25610000      9338.69
   CC31A    CC31A    CC31A     5   111.000000   446.432800   0.25610000      6694.40
   CC31A    CC31A    CC32A     5   113.500000   488.272800   0.25610000      9338.69
   CC31A    CC31A    CC33A     5   108.500000   446.432800   0.25610000      6694.40
   CC31A    CC32A    CC31A     5   113.500000   488.272800   0.25610000      9338.69
   CC31A    CC32A    CC32A     5   113.500000   488.272800   0.25610000      9338.69
   CC31A    CC32A    CC33A     5   113.500000   488.272800   0.25610000      9338.69
   CC32A    CC30A    CC32A     5   113.500000   488.272800   0.25610000      9338.69
   CC32A    CC31A    CC32A     5   113.500000   488.272800   0.25610000      9338.69
   CC32A    CC32A    CC32A     5   113.600000   488.272800   0.25610000      9338.69
   CC32A    CC32A    CC33A     5   115.000000   485.344000   0.25610000      6694.40
   CC33A    CC30A    CC33A     5   114.000000   446.432800   0.25610000      6694.40
   CC33A    CC31A    CC32A     5   114.000000   446.432800   0.25610000      6694.40
   CC33A    CC31A    CC33A     5   114.000000   446.432800   0.25610000      6694.40
   CC33A    CC32A    CC33A     5   114.000000   446.432800   0.25610000      6694.40
  CC325A   CC325A   CC325A     5   106.000000   485.344000   0.25610000      9338.69
  HCA25A   CC325A   CC325A     5   111.400000   292.880000   0.21790000     18853.10
  HCA25A   CC325A   HCA25A     5   106.800000   322.168000   0.18020000      4518.72
  HCA25A   CC325B   CC325B     5   111.400000   292.880000   0.21790000     18853.10
  HCA25A   CC325B   HCA25A     5   106.800000   322.168000   0.18020000      4518.72
  CC325B   CC325B   CC325B     5   109.500000   485.344000   0.25610000      9338.69
  OC305A   CC325B   CC325B     5   111.100000   376.560000   0.00000000         0.00
  CC325B   OC305A   CC325B     5   111.000000   794.960000   0.00000000         0.00
  HCA25A   CC325B   OC305A     5   107.300000   585.760000   0.00000000         0.00
   HCA3A    CC33A   CC325B     5   110.100000   289.532800   0.21790000     18853.10
  CC325B   CC325B    CC33A     5   115.000000   485.344000   0.25610000      6694.40
  HCA25A   CC325B    CC33A     5   110.100000   289.532800   0.21790000     18853.10
  OC305A   CC325B    CC33A     5   111.500000   376.560000   0.00000000         0.00
   CC32A    OC30A    CC32A     5   109.700000   794.960000   0.00000000         0.00
   CC33A    OC30A    CC32A     5   109.700000   794.960000   0.00000000         0.00
   CC33A    OC30A    CC33A     5   109.700000   794.960000   0.00000000         0.00
   OC30A    CC32A    CC32A     5   111.500000   376.560000   0.00000000         0.00
   OC30A    CC32A    CC33A     5   111.500000   376.560000   0.00000000         0.00
   HCA3A    CC33A    OC30A     5   109.500000   502.080000   0.00000000         0.00
   HCA2A    CC32A    OC30A     5   109.500000   502.080000   0.00000000         0.00
   HCA2A   CC326A   CC326A     5   110.100000   288.696000   0.21790000     18853.10
   HCA2A   CC326A    HCA2A     5   109.000000   297.064000   0.18020000      4518.72
  CC326A   CC326A   CC326A     5   112.000000   488.272800   0.25610000      9338.69
   OC30A   CC326A   CC326A     5   111.500000   376.560000   0.00000000         0.00
  CC326A    OC30A   CC326A     5   109.700000   794.960000   0.00000000         0.00
   HCA2A   CC326A    OC30A     5   109.500000   376.560000   0.00000000         0.00
    OSIE       SI     OSIE     5   117.000000   251.040000   0.00000000         0.00
    OSIE     SIH3     OSIE     5   121.500000   251.040000   0.00000000         0.00
      SI     OSIE     SIH3     5   150.500000   284.512000   0.00000000         0.00
      SI     OSIE       SI     5   150.000000   284.512000   0.00000000         0.00
      SI     OSIA       SI     5   150.000000   284.512000   0.00000000         0.00
    OSIA       SI     OSIH     5   126.000000   267.776000   0.00000000         0.00
    OSIA       SI     OSIA     5   121.500000   251.040000   0.00000000         0.00
    OSIA       SI     OSIE     5   121.500000   251.040000   0.00000000         0.00
    SIH3     OSIE     SIH3     5   159.000000   284.512000   0.00000000         0.00
    HSIA     SIH3     HSIA     5   119.000000   251.040000   0.00000000         0.00
    HSIA     SIH3     OSIE     5   118.000000   368.192000   0.00000000         0.00
      SI     OSIH     HSIO     5   122.500000   284.512000   0.00000000         0.00
    OSIE       SI     OSIH     5   126.000000   267.776000   0.00000000         0.00
    OSIH       SI     OSIH     5   117.000000   251.040000   0.00000000         0.00
      AL      OAL       AL     5    98.000000   251.040000   0.00000000         0.00
      AL      OAL       SI     5   117.000000   251.040000   0.00000000         0.00
     OAL       SI     OSIE     5   117.000000   251.040000   0.00000000         0.00
     HAL      OAL       AL     5    93.400000   292.880000   0.00000000         0.00
     OAL       AL      HAL     5    93.400000   292.880000   0.00000000         0.00
     OAL       AL      OAL     5    90.000000   251.040000   0.00000000         0.00
    OSIE       AL     OSIE     5   117.000000   251.040000   0.00000000         0.00
    OSIE       AL      OAL     5   117.000000   251.040000   0.00000000         0.00
    OSIE       AL      HAL     5   119.000000   251.040000   0.00000000         0.00
      AL     OSIE       SI     5   117.000000   251.040000   0.00000000         0.00
      AL     OSIE       AL     5   117.000000   251.040000   0.00000000         0.00
    OSIE       SI     HSIA     5   118.000000   368.192000   0.00000000         0.00
      HT       OT       HT     5   104.520000   460.240000   0.00000000         0.00
     OST      CST      OST     5   180.000000 25104.000000   0.00000000         0.00
      CS       SS       FE     5   100.600000   418.400000   0.00000000         0.00
      SS       FE      NPH     5    90.000000   836.800000   0.00000000         0.00
     CPA      CPB      CE1     5   126.740000   585.760000   0.00000000         0.00
     CPA      CPM      CPA     5   125.120000   788.265600   0.00000000         0.00
     CPA      NPH      CPA     5   103.900000  1165.662400   0.00000000         0.00
     CPB      CE1      CE2     5   121.500000   585.760000   0.00000000         0.00
     CPB      CPB      CE1     5   126.750000   585.760000   0.00000000         0.00
     CPB      CPB      CPA     5   106.510000   257.734400   0.00000000         0.00
     CPM      CPA      CPB     5   124.070000   515.468800   0.00000000         0.00
     CT2      CPB      CPA     5   126.740000   543.920000   0.00000000         0.00
     CT2      CPB      CPB     5   126.750000   543.920000   0.00000000         0.00
     CT2      CT2      CPB     5   113.000000   585.760000   0.00000000         0.00
     CT3      CPB      CPA     5   126.740000   543.920000   0.00000000         0.00
     CT3      CPB      CPB     5   126.750000   543.920000   0.00000000         0.00
      FE      NPH      CPA     5   128.050000   804.583200   0.00000000         0.00
      FE      NR2     CPH1     5   133.000000   251.040000   0.00000000         0.00
      FE      NR2     CPH2     5   123.000000   251.040000   0.00000000         0.00
      HA       CA       CA     5   120.000000   242.672000   0.21525000     20920.00
      HA       CA      CPT     5   122.000000   343.088000   0.00000000         0.00
      HA       CA       CY     5   125.000000   267.776000   0.21730000     20920.00
      HA      CP2      CP1     5   110.100000   279.742240   0.21790000     18853.10
      HA      CP2      CP2     5   110.100000   221.752000   0.21790000     18853.10
      HA      CP2      CP3     5   110.100000   221.752000   0.21790000     18853.10
      HA      CP2       HA     5   109.000000   297.064000   0.18020000      4518.72
      HA      CP3      CP2     5   110.100000   221.752000   0.21790000     18853.10
      HA      CP3       HA     5   109.000000   297.064000   0.18020000      4518.72
      HA      CPM      CPA     5   117.440000   106.273600   0.00000000         0.00
      HA      CPM       FE     5   180.000000     0.000000   0.00000000         0.00
      HA       CS      CT3     5   110.100000   289.532800   0.21790000     18853.10
      HA       CS       HA     5   108.400000   297.064000   0.17750000     11715.20
      HA      CT1        C     5   109.500000   276.144000   0.21630000     25104.00
      HA      CT1       CD     5   109.500000   276.144000   0.21630000     25104.00
      HA      CT1      CT1     5   110.100000   288.696000   0.21790000     18853.10
      HA      CT1      CT2     5   110.100000   288.696000   0.21790000     18853.10
      HA      CT1      CT3     5   110.100000   288.696000   0.21790000     18853.10
      HA      CT1       HA     5   109.000000   297.064000   0.18020000      4518.72
      HA      CT2        C     5   109.500000   276.144000   0.21630000     25104.00
      HA      CT2       CA     5   107.500000   412.542400   0.00000000         0.00
      HA      CT2       CC     5   109.500000   276.144000   0.21630000     25104.00
      HA      CT2       CD     5   109.500000   276.144000   0.21630000     25104.00
      HA      CT2      CE1     5   111.500000   376.560000   0.00000000         0.00
      HA      CT2      CPB     5   109.500000   418.400000   0.00000000         0.00
      HA      CT2     CPH1     5   109.500000   279.742240   0.00000000         0.00
      HA      CT2      CT1     5   110.100000   279.742240   0.21790000     18853.10
      HA      CT2      CT2     5   110.100000   221.752000   0.21790000     18853.10
      HA      CT2      CT3     5   110.100000   289.532800   0.21790000     18853.10
      HA      CT2       CY     5   109.500000   279.742240   0.00000000         0.00
      HA      CT2       HA     5   109.000000   297.064000   0.18020000      4518.72
      HA      CT3        C     5   109.500000   276.144000   0.21630000     25104.00
      HA      CT3       CA     5   107.500000   412.542400   0.00000000         0.00
      HA      CT3       CC     5   109.500000   276.144000   0.21630000     25104.00
      HA      CT3       CD     5   109.500000   276.144000   0.21630000     25104.00
      HA      CT3      CE1     5   111.500000   351.456000   0.00000000         0.00
      HA      CT3      CPB     5   109.500000   418.400000   0.00000000         0.00
      HA      CT3     CPH1     5   109.500000   279.742240   0.00000000         0.00
      HA      CT3       CS     5   110.100000   289.532800   0.21790000     18853.10
      HA      CT3      CT1     5   110.100000   279.742240   0.21790000     18853.10
      HA      CT3      CT2     5   110.100000   289.532800   0.21790000     18853.10
      HA      CT3      CT3     5   110.100000   313.800000   0.21790000     18853.10
      HA      CT3       HA     5   108.400000   297.064000   0.18020000      4518.72
      HA       CY       CA     5   126.400000   167.360000   0.21860000     20920.00
      HA       CY      CPT     5   126.400000   267.776000   0.22550000     20920.00
     HE1      CE1      CPB     5   120.000000   418.400000   0.00000000         0.00
      HB      CP1        C     5   112.000000   418.400000   0.00000000         0.00
      HB      CP1       CC     5   112.000000   418.400000   0.00000000         0.00
      HB      CP1       CD     5   112.000000   418.400000   0.00000000         0.00
      HB      CP1      CP2     5   118.000000   292.880000   0.00000000         0.00
      HB      CT1        C     5   109.500000   418.400000   0.00000000         0.00
      HB      CT1       CC     5   109.500000   418.400000   0.00000000         0.00
      HB      CT1       CD     5   109.500000   418.400000   0.00000000         0.00
      HB      CT1      CT1     5   111.000000   292.880000   0.00000000         0.00
      HB      CT1      CT2     5   111.000000   292.880000   0.00000000         0.00
      HB      CT1      CT3     5   111.000000   292.880000   0.00000000         0.00
      HB      CT2        C     5   109.500000   418.400000   0.00000000         0.00
      HB      CT2       CC     5   109.500000   418.400000   0.00000000         0.00
      HB      CT2       CD     5   109.500000   418.400000   0.00000000         0.00
      HB      CT2       HB     5   115.000000   301.248000   0.00000000         0.00
      HB      CT3        C     5   109.500000   418.400000   0.00000000         0.00
       N      CP1       HB     5   112.000000   401.664000   0.00000000         0.00
       N      CP3       HA     5   108.000000   401.664000   0.00000000         0.00
     NC2      CT2       HA     5   107.500000   430.952000   0.00000000         0.00
     NC2      CT3       HA     5   107.500000   430.952000   0.00000000         0.00
     NH1      CT1       HB     5   108.000000   401.664000   0.00000000         0.00
     NH1      CT2       HA     5   109.500000   430.952000   0.00000000         0.00
     NH1      CT2       HB     5   108.000000   401.664000   0.00000000         0.00
     NH1      CT3       HA     5   109.500000   430.952000   0.00000000         0.00
     NH2       CC       HA     5   111.000000   368.192000   0.19800000     41840.00
     NH2      CT2       HA     5   109.500000   317.984000   0.21400000     41840.00
     NH2      CT2       HB     5   109.500000   317.984000   0.21400000     41840.00
     NH2      CT3       HA     5   109.500000   317.984000   0.21400000     41840.00
     NH3      CT1       HB     5   107.500000   430.952000   0.00000000         0.00
     NH3      CT2       HA     5   107.500000   376.560000   0.21010000     29288.00
     NH3      CT2       HB     5   107.500000   430.952000   0.00000000         0.00
     NH3      CT3       HA     5   107.500000   376.560000   0.21010000     29288.00
      NP      CP1       HB     5   107.500000   430.952000   0.00000000         0.00
      NP      CP3       HA     5   109.150000   430.952000   0.00000000         0.00
     NPH      CPA      CPB     5   111.540000  1020.896000   0.00000000         0.00
     NPH      CPA      CPM     5   124.390000   736.384000   0.00000000         0.00
     NPH       FE       CM     5    90.000000   418.400000   0.00000000         0.00
     NPH       FE      CPM     5    45.000000     0.000000   0.00000000         0.00
     NPH       FE      NPH     5    90.000000   120.415520   0.00000000         0.00
     NR2       FE       CM     5   180.000000   418.400000   0.00000000         0.00
     NR2       FE      NPH     5    90.000000   418.400000   0.00000000         0.00
      NY       CA       HA     5   125.000000   267.776000   0.21770000     20920.00
       O       CC       HA     5   122.000000   368.192000   0.00000000         0.00
      OC      CT2       HA     5   118.300000   543.920000   0.00000000         0.00
      OC      CT3       HA     5   118.300000   543.920000   0.00000000         0.00
     OH1      CT1       HA     5   108.890000   384.091200   0.00000000         0.00
     OH1      CT2       HA     5   108.890000   384.091200   0.00000000         0.00
     OH1      CT3       HA     5   108.890000   384.091200   0.00000000         0.00
      OM       CM       FE     5   180.000000   292.880000   0.00000000         0.00
      OM       FE      NPH     5    90.000000    41.840000   0.00000000         0.00
      OM       OM       FE     5   180.000000     0.000000   0.00000000         0.00
      OS      CT2       HA     5   109.500000   502.080000   0.00000000         0.00
      OS      CT3       HA     5   109.500000   502.080000   0.00000000         0.00
       S      CT2       HA     5   111.300000   385.764800   0.00000000         0.00
       S      CT3       HA     5   111.300000   385.764800   0.00000000         0.00
      SM      CT2       HA     5   111.000000   317.984000   0.00000000         0.00
      SM      CT3       HA     5   111.000000   317.984000   0.00000000         0.00
      SS       CS       HA     5   112.300000   334.720000   0.00000000         0.00
    HPER     OPER     OPER     5    99.920000   505.427200   0.00000000         0.00
     HA2      CT2      CPB     5   109.500000   418.400000   0.00000000         0.00
     HA3      CT3      CPB     5   109.500000   418.400000   0.00000000         0.00
       H      OH1       FE     5   108.000000   543.920000   0.00000000         0.00
     OH1       FE      NPH     5    90.000000    41.840000   0.00000000         0.00
    CTL1     CTL2     CEL1     5   112.200000   267.776000   0.00000000         0.00
    CTL1     CEL1     CTL2     5   113.000000   418.400000   0.00000000         0.00
    CEL1     CEL1     CTL1     5   123.500000   401.664000   0.00000000         0.00
    CTL1     CTL1     CEL1     5   112.200000   267.776000   0.00000000         0.00
    CTL3     CTL1     CEL1     5   112.200000   267.776000   0.00000000         0.00
    CTL2     CTL1     CEL1     5   112.200000   267.776000   0.00000000         0.00
     OHL     CTL1     CTL3     5   110.100000   633.457600   0.00000000         0.00
     HOL      OHL     CRL1     5   106.000000   481.160000   0.00000000         0.00
     OHL     CRL1     CRL2     5   110.100000   633.457600   0.00000000         0.00
     OHL     CRL1     HGA1     5   108.890000   384.091200   0.00000000         0.00
    HAL3     CTL3     CRL1     5   110.100000   279.742240   0.21790000     18853.10
    CRL1     CRL1     CTL3     5   108.500000   446.432800   0.25610000      6694.40
    CRL2     CRL1     CTL3     5   113.500000   488.272800   0.25610000      9338.69
    HEL1     CEL1     CRL2     5   116.000000   334.720000   0.00000000         0.00
    HGA2     CRL2     CEL1     5   111.500000   376.560000   0.00000000         0.00
    HAL2     CRL2     CEL1     5   111.500000   376.560000   0.00000000         0.00
    HGA2     CTL2     CEL1     5   111.500000   376.560000   0.00000000         0.00
    CRL1     CRL2     CEL1     5   112.200000   267.776000   0.00000000         0.00
    CEL1     CEL1     CRL2     5   123.500000   401.664000   0.00000000         0.00
    CEL1     CEL1     CRL1     5   123.500000   401.664000   0.00000000         0.00
    CRL1     CRL1     CEL1     5   112.200000   267.776000   0.00000000         0.00
    CTL1     CRL1     CEL1     5   112.200000   267.776000   0.00000000         0.00
    CRL1     CTL1     CEL1     5   112.200000   267.776000   0.00000000         0.00
    CTL3     CRL1     CEL1     5   112.200000   267.776000   0.00000000         0.00
    CRL2     CRL1     CEL1     5   112.200000   267.776000   0.00000000         0.00
    CTL2     CRL1     CEL1     5   112.200000   267.776000   0.00000000         0.00
    CRL2     CTL1     CEL1     5   112.200000   267.776000   0.00000000         0.00
    CRL2     CRL1     CTL2     5   113.500000   488.272800   0.25610000      9338.69
    CRL2     CRL1     CRL2     5   113.500000   488.272800   0.25610000      9338.69
    HGA1     CRL1     CTL2     5   110.100000   288.696000   0.21790000     18853.10
    HGA1     CRL1     CRL2     5   110.100000   288.696000   0.21790000     18853.10
    CRL1     CRL1     CTL2     5   113.500000   488.272800   0.25610000      9338.69
    CRL1     CRL1     CRL2     5   113.500000   488.272800   0.25610000      9338.69
    CRL1     CTL2     CTL3     5   113.500000   488.272800   0.25610000      9338.69
    HAL2     CTL2     CRL1     5   110.100000   221.752000   0.21790000     18853.10
    HGA2     CRL2     CRL1     5   110.100000   221.752000   0.21790000     18853.10
    CRL1     CTL2     CTL2     5   113.500000   488.272800   0.25610000      9338.69
    CRL1     CRL2     CRL2     5   113.500000   488.272800   0.25610000      9338.69
    CRL1     CEL1     CRL2     5   113.000000   418.400000   0.00000000         0.00
    CRL1     CRL1     CRL1     5   111.000000   446.432800   0.25610000      6694.40
    CTL1     CRL1     CRL2     5   113.500000   488.272800   0.25610000      9338.69
    HGA1     CRL1     CTL1     5   110.100000   288.696000   0.21790000     18853.10
    HGA1     CRL1     CRL1     5   110.100000   288.696000   0.21790000     18853.10
    CTL1     CRL1     CRL1     5   111.000000   446.432800   0.25610000      6694.40
    HAL1     CTL1     CRL1     5   110.100000   288.696000   0.21790000     18853.10
    CRL1     CTL1     CTL3     5   108.500000   446.432800   0.25610000      6694.40
    CRL1     CTL1     CTL2     5   113.500000   488.272800   0.25610000      9338.69
    CEL2     CEL1     CRL2     5   126.000000   401.664000   0.00000000         0.00
    CEL1     CRL2     CRL2     5   112.200000   267.776000   0.00000000         0.00
    CEL1     CTL2     CRL2     5   112.200000   267.776000   0.00000000         0.00
    CEL1     CRL2     CTL2     5   112.200000   267.776000   0.00000000         0.00
    CEL1     CRL2     CTL3     5   112.200000   267.776000   0.00000000         0.00
    CEL1     CRL2     CEL1     5   114.000000   251.040000   0.00000000         0.00
    CTL1     CRL2     CEL1     5   112.200000   267.776000   0.00000000         0.00
    CRL1     CTL2     CEL1     5   112.200000   267.776000   0.00000000         0.00
    CTL1     CEL1     CRL2     5   113.000000   418.400000   0.00000000         0.00
    CRL1     CEL1     CTL2     5   113.000000   418.400000   0.00000000         0.00
    HGA2     CRL2     HGA2     5   109.000000   297.064000   0.18020000      4518.72
    HGA2     CRL2     CRL2     5   110.100000   221.752000   0.21790000     18853.10
    HGA1     CRL1     CTL3     5   110.100000   288.696000   0.21790000     18853.10
    CRL2     CRL2     CRL2     5   113.600000   488.272800   0.25610000      9338.69
    CEL1     CEL1     CEL1     5   123.500000   401.664000   0.00000000         0.00
    CRL1     CEL1     CRL1     5   113.000000   418.400000   0.00000000         0.00
    CEL1     CRL1     HGA1     5   111.500000   376.560000   0.00000000         0.00
    HEL1     CEL1     CTL1     5   116.000000   334.720000   0.00000000         0.00
    CTL1     CEL1     CTL1     5   113.000000   418.400000   0.00000000         0.00
    CEL1     CTL1     HAL1     5   111.500000   376.560000   0.00000000         0.00
    HGA1     CRL1      OSL     5   109.500000   502.080000   0.00000000         0.00
     OSL     CRL1     CRL2     5   109.700000   962.320000   0.00000000         0.00
    CRL1      OSL       CL     5   109.600000   334.720000   0.22651000     25104.00
    CTL2   CG3RC1     HGA1     5   110.100000   288.696000   0.21790000     18853.10
    CTL2     CTL2   CG3RC1     5   111.000000   446.432800   0.25610000      6694.40
    HAL2     CTL2   CG3RC1     5   110.100000   288.696000   0.21790000     18853.10
    CTL2   CG3RC1   CG3C31     5   111.000000   446.432800   0.25610000      6694.40
    CTL2   CG3RC1   CG3RC1     5   111.000000   446.432800   0.25610000      6694.40
  CG3RC1     CTL3     HAL3     5   110.100000   279.742240   0.21790000     18853.10
    CTL3   CG3RC1   CG3RC1     5   113.500000   488.272800   0.25610000      9338.69
    CTL3   CG3RC1     HGA1     5   110.100000   288.696000   0.21790000     18853.10
    CTL3   CG3RC1   CG3C31     5   111.000000   446.432800   0.25610000      6694.40
  CG3C31     CTL2     HAL2     5   110.100000   221.752000   0.21790000     18853.10
    CTL1     CTL2       CL     5   108.000000   435.136000   0.00000000         0.00
     OSL        C        O     5   125.900000   753.120000   0.22576000    133888.00
     OSL        C      CT1     5   109.000000   460.240000   0.23260000     16736.00
       C      OSL     CTL2     5   109.600000   334.720000   0.22651000     25104.00
      CA       CA     ON2B     5   120.000000   627.600000   0.00000000         0.00
      CA     ON2B        P     5   120.000000   753.120000   0.23000000     16736.00
     ON4        P     ON2B     5   108.000000   402.500800   0.00000000         0.00
     ON3        P     ON2B     5   103.000000   827.595200   0.00000000         0.00
     HA2      CT2        P     5   110.000000   753.120000   0.18020000      4518.72
      CA      CT2        P     5   111.000000   753.120000   0.23000000     16736.00
     CT2        P      ON4     5    94.000000   753.956800   0.00000000         0.00
     CT2        P      ON3     5   103.000000   827.595200   0.00000000         0.00
      CA       CA      CF2     5   120.000000   836.800000   0.00000000         0.00
      CA      CF2       F2     5   115.000000   418.400000   0.23570000     25104.00
      CA      CF2        P     5   117.000000   753.120000   0.23000000     16736.00
      F2      CF2        P     5   122.000000   418.400000   0.23570000     25104.00
     CF2        P      ON4     5    90.000000   753.956800   0.00000000         0.00
     CF2        P      ON3     5    94.000000   827.595200   0.00000000         0.00
     CT1      CT1      ON2     5   109.700000   962.320000   0.00000000         0.00
     CT3      CT1      ON2     5   109.700000   962.320000   0.00000000         0.00
     CT1      CT2      ON2     5   108.400000   585.760000   0.00000000         0.00
     CT3      CT2      ON2     5   108.400000   585.760000   0.00000000         0.00
     CN9      CN8      ON2     5   108.400000   585.760000   0.00000000         0.00
     CT1      ON2        P     5   120.000000   167.360000   0.23300000     29288.00
     CT2      ON2        P     5   120.000000   167.360000   0.23300000     29288.00
     HA1      CT1      ON2     5   109.500000   502.080000   0.00000000         0.00
     HA2      CT2      ON2     5   109.500000   502.080000   0.00000000         0.00
     CN9      CN7      CN9     5   113.600000   488.272800   0.25610000      9338.69
     ON2      CN7      CN9     5   109.700000   962.320000   0.00000000         0.00
       S     CN8B      CN7     5   114.500000   485.344000   0.00000000         0.00
    CN8B        S      CT2     5    95.000000   284.512000   0.00000000         0.00
       S     CN8B      HN8     5   111.300000   385.764800   0.00000000         0.00
      SP      CT2      HA2     5   111.300000   385.764800   0.00000000         0.00
      SP      CT2      CT2     5   114.500000   485.344000   0.00000000         0.00
     CT2       SP      CT3     5    95.000000   284.512000   0.00000000         0.00
     CT2       SP     CN8B     5    95.000000   284.512000   0.00000000         0.00
      SP      CT3      HA3     5   111.300000   385.764800   0.00000000         0.00
     CT3       SP     CN8B     5    95.000000   284.512000   0.00000000         0.00
      SP     CN8B      CN7     5   114.500000   485.344000   0.00000000         0.00
      SP     CN8B      HN8     5   111.300000   385.764800   0.00000000         0.00
     ON6     CN7B      NR1     5   108.000000  1171.520000   0.00000000         0.00
    ON6B     CN7B      NR1     5   108.000000  1171.520000   0.00000000         0.00
     CN8     CN7B      NR1     5   113.700000  1171.520000   0.00000000         0.00
    CN7B     CN7B      NR1     5   113.700000  1171.520000   0.00000000         0.00
    CN7B      NR1     CPH2     5   127.000000  1087.840000   0.00000000         0.00
    CN7B      NR1     CPH1     5   126.000000  1087.840000   0.00000000         0.00
     HN7     CN7B      NR1     5   106.300000   251.040000   0.00000000         0.00
     CT2        S      CN8     5    95.000000   284.512000   0.00000000         0.00
       S      CN8      CN8     5   114.500000   485.344000   0.00000000         0.00
       S      CN8      HN8     5   111.300000   385.764800   0.00000000         0.00
   NC2D1   CC311D   OC3C61     5   110.000000   753.120000   0.00000000         0.00
    HCA1   CC311D    NC2D1     5   108.000000   401.664000   0.00000000         0.00
   NC2D1   CC311D   CC321C     5   113.500000   585.760000   0.00000000         0.00
   NC2D1   CC311D   CC311D     5   113.500000   585.760000   0.00000000         0.00
  CC311D    NC2D1     HCP1     5   117.000000   292.880000   0.00000000         0.00
  CC311D    NC2D1    CC2O1     5   120.000000   418.400000   0.00000000         0.00
   NC2D1   CC3162   OC3C61     5   110.000000   753.120000   0.00000000         0.00
    HCA1   CC3162    NC2D1     5   108.000000   401.664000   0.00000000         0.00
   NC2D1   CC3162   CC3161     5   113.500000   585.760000   0.00000000         0.00
  CC3162    NC2D1     HCP1     5   117.000000   292.880000   0.00000000         0.00
  CC3162    NC2D1    CC2O1     5   120.000000   418.400000   0.00000000         0.00
     NH3      CT1    CC321     5   110.000000   566.513600   0.00000000         0.00
   CC321      CT1       CC     5   108.000000   435.136000   0.00000000         0.00
     NH1      CT1    CC321     5   113.500000   585.760000   0.00000000         0.00
     HB1      CT1    CC321     5   111.000000   292.880000   0.00000000         0.00
   CC321      CT1        C     5   108.000000   435.136000   0.00000000         0.00
     CT1    CC321    CC2O1     5   108.000000   435.136000   0.00000000         0.00
     CT1    CC321     HCA2     5   110.100000   279.742240   0.21790000     18853.10
    HCA2    CC321    CC2O1     5   109.500000   276.144000   0.21630000     25104.00
   CC321    CC2O1    OC2D1     5   121.000000   125.520000   0.24400000     41840.00
   CC321    CC2O1    NC2D1     5   116.500000   418.400000   0.24500000     41840.00
     CT1      CT2    OC301     5   107.000000   376.560000   0.00000000         0.00
     CT1      CT1    OC301     5   107.000000   376.560000   0.00000000         0.00
     CT2    OC301   CC311D     5   110.700000   794.960000   0.00000000         0.00
     CT1    OC301   CC311D     5   110.700000   794.960000   0.00000000         0.00
     CT2    OC301   CC3162     5   110.700000   794.960000   0.00000000         0.00
     CT1    OC301   CC3162     5   110.700000   794.960000   0.00000000         0.00
     CT3      CT1    OC301     5   110.000000   376.560000   0.00000000         0.00
      HA      CT2    OC301     5   109.500000   502.080000   0.00000000         0.00
     HA2      CT2    OC301     5   109.500000   502.080000   0.00000000         0.00
      HA      CT1    OC301     5   109.500000   502.080000   0.00000000         0.00
     HA1      CT1    OC301     5   109.500000   502.080000   0.00000000         0.00
   OC30P       PL    OC2DP     5   111.600000   827.595200   0.00000000         0.00
   OC2DP       PL    OC2DP     5   120.000000  1004.160000   0.00000000         0.00
   OC30P       PL    OC30P     5   104.300000   669.440000   0.00000000         0.00
  CC3161    OC30P       PL     5   120.000000   167.360000   0.23300000     29288.00
   OC301     CTL2     CTL2     5   111.500000   376.560000   0.00000000         0.00
  CC3162    OC301     CTL2     5   109.700000   794.960000   0.00000000         0.00
  CC311D    OC301     CTL2     5   109.700000   794.960000   0.00000000         0.00
   OC301     CTL2     HAL2     5   109.500000   502.080000   0.00000000         0.00
  CC3161    OC301     CTL2     5   109.700000   794.960000   0.00000000         0.00
     OSL     CTL1     CTO2     5   110.100000   633.457600   0.00000000         0.00
    CTL2     CTL1     CTO2     5   113.500000   488.272800   0.25610000      9338.69
   OC30P       PL      O2L     5   111.600000   827.595200   0.00000000         0.00
   OC30P       PL     OSLP     5   104.300000   669.440000   0.00000000         0.00
   OG303   CC3162     HCA1     5   109.500000   502.080000   0.00000000         0.00
   OG303   CC3162   OC3C61     5   110.000000   753.120000   0.00000000         0.00
   OG303   CC3162   CC3161     5   109.000000   376.560000   0.00000000         0.00
  CC3162    OG303      PG1     5   120.000000   167.360000   0.23300000     29288.00
   CG2D1    CG321    OG303     5   110.100000   633.457600   0.00000000         0.00
   OC301     CTO2     CTL1     5   111.500000   376.560000   0.00000000         0.00
  CC3162    OC301     CTO2     5   109.700000   794.960000   0.00000000         0.00
  CC311D    OC301     CTO2     5   109.700000   794.960000   0.00000000         0.00
   OC301     CTO2     HAL2     5   109.500000   502.080000   0.00000000         0.00
  CC3162    OC301     CTL1     5   109.700000   794.960000   0.00000000         0.00
      CL      OSL    CC321     5   109.600000   334.720000   0.22651000     25104.00
     OSL    CC321   CC3163     5   106.000000   376.560000   0.00000000         0.00
     OSL    CC321     HCA2     5   109.500000   502.080000   0.00000000         0.00
    CTL2     CTL2   CC311C     5   113.600000   488.272800   0.25610000      9338.69
    HAL2     CTL2   CC311C     5   110.100000   221.752000   0.21790000     18853.10
    CTL2   CC311C     HCA1     5   110.100000   288.696000   0.21790000     18853.10
    CTL2   CC311C   CC321C     5   113.500000   488.272800   0.25610000      9338.69
       H      NHL       CL     5   123.000000   284.512000   0.00000000         0.00
      CL      NHL     CTL2     5   120.000000   418.400000   0.00000000         0.00
     NHL       CL      OSL     5   122.500000   669.440000   0.00000000         0.00
     NHL       CL      OBL     5   122.500000   669.440000   0.00000000         0.00
   CC321      NHL        C     5   120.000000   418.400000   0.00000000         0.00
   CC322      NHL        C     5   120.000000   418.400000   0.00000000         0.00
   CC321      NHL    CC322     5   120.000000   418.400000   0.00000000         0.00
   CC321    CC321      NHL     5   113.500000   585.760000   0.00000000         0.00
     NHL    CC322     HCA2     5   109.500000   430.952000   0.00000000         0.00
     NHL    CC321     HCA2     5   109.500000   430.952000   0.00000000         0.00
     NHL    CC322    CC312     5   113.500000   585.760000   0.00000000         0.00
   CC331      NHL        C     5   120.000000   418.400000   0.00000000         0.00
   CC331      NHL    CC322     5   120.000000   418.400000   0.00000000         0.00
     NHL    CC331     HCA3     5   109.500000   430.952000   0.00000000         0.00
  CG2R61   CG2R61    OC301     5   120.000000   920.480000   0.00000000         0.00
  CG2R61    OC301    CC321     5   108.000000   543.920000   0.00000000         0.00
    CTL2    CC301   CC311C     5   113.600000   488.272800   0.25610000      9338.69
   CC301   CC311C     HCA1     5   110.100000   288.696000   0.21790000     18853.10
   CC301   CC311C   CC321C     5   113.500000   488.272800   0.25610000      9338.69
     CT1      CT2        C     5   108.000000   435.136000   0.00000000         0.00
      SS       ZN       SS     5   111.770000   836.800000   0.00000000         0.00
      CS       SS       ZN     5    95.000000   167.360000   0.00000000         0.00
      ZN       SS       ZN     5   103.800000   836.800000   0.00000000         0.00
    CPH2      NR2       ZN     5   120.650000   167.360000   0.00000000         0.00
    CPH1      NR2       ZN     5   125.980000   167.360000   0.00000000         0.00
      SS       ZN      NR2     5   108.110000   836.800000   0.00000000         0.00
     NR2       ZN      NR2     5   107.850000   836.800000   0.00000000         0.00
      CT      NH1        C     5   120.000000   418.400000   0.00000000         0.00
     CT3       CT        C     5   108.000000   435.136000   0.00000000         0.00
       H      NH1       CT     5   117.000000   292.880000   0.00000000         0.00
     NH1        C       CT     5   116.500000   669.440000   0.00000000         0.00
     NH1       CT        C     5   107.000000   418.400000   0.00000000         0.00
     NH1       CT      CT3     5   113.500000   585.760000   0.00000000         0.00
       O        C       CT     5   121.000000   669.440000   0.00000000         0.00
      CY      CT2       CT     5   114.000000   488.272800   0.00000000         0.00
      CT      CT2       CA     5   107.500000   433.462400   0.00000000         0.00
      CT      CT2       CC     5   108.000000   435.136000   0.00000000         0.00
      CT      CT2       CD     5   108.000000   435.136000   0.00000000         0.00
      CT      CT2     CPH1     5   113.000000   488.272800   0.00000000         0.00
     CT2       CT        C     5   108.000000   435.136000   0.00000000         0.00
     CT3      CT2       CT     5   113.500000   488.272800   0.25610000      9338.69
     NH1       CT      CT2     5   113.500000   585.760000   0.00000000         0.00
     OH1      CT2       CT     5   110.100000   633.457600   0.00000000         0.00
       S      CT2       CT     5   112.500000   485.344000   0.00000000         0.00
      SM      CT2       CT     5   112.500000   485.344000   0.00000000         0.00
     NH1       CT     CT2A     5   113.500000   585.760000   0.00000000         0.00
    CT2A       CT        C     5   108.000000   435.136000   0.00000000         0.00
      CT     CT2A      HA2     5   110.100000   221.752000   0.21790000     18853.10
      CT     CT2A      CT2     5   113.500000   488.272800   0.25610000      9338.69
      CT     CT2A     CPH1     5   113.000000   488.272800   0.00000000         0.00
      CT     CT2A       CC     5   108.000000   435.136000   0.00000000         0.00
     CT1      CT2       CT     5   113.500000   488.272800   0.25610000      9338.69
    CT2A       CT      CT3     5   113.500000   488.272800   0.25610000      9338.69
     NH2       CT      CT2     5   110.000000   566.513600   0.00000000         0.00
     CT2       CT       CC     5   108.000000   435.136000   0.00000000         0.00
    CT2A       CT       CC     5   108.000000   435.136000   0.00000000         0.00
     CT2       CT       CD     5   108.000000   435.136000   0.00000000         0.00
     NH3       CT      CT2     5   110.000000   566.513600   0.00000000         0.00
     NH3       CT     CT2A     5   110.000000   566.513600   0.00000000         0.00
    CT2A       CT       CD     5   108.000000   435.136000   0.00000000         0.00
       H      NH2       CT     5   111.000000   418.400000   0.00000000         0.00
     NH2       CT      CT3     5   110.000000   566.513600   0.00000000         0.00
      CT       CD      OH1     5   110.500000   460.240000   0.00000000         0.00
     CP1       CD      OH1     5   110.500000   460.240000   0.00000000         0.00
     CT3       CT       CD     5   108.000000   435.136000   0.00000000         0.00
     NH2       CT        C     5   107.000000   418.400000   0.00000000         0.00
     CT3       CT       CC     5   108.000000   435.136000   0.00000000         0.00
      HC      NH3       CT     5   109.500000   251.040000   0.20740000     16736.00
     NH1       CT       CC     5   107.000000   418.400000   0.00000000         0.00
     NH1       CT       CD     5   107.000000   418.400000   0.00000000         0.00
     NH2       CC       CT     5   116.500000   418.400000   0.24500000     41840.00
     NH3       CT        C     5   110.000000   365.681600   0.00000000         0.00
     NH3       CT       CC     5   110.000000   365.681600   0.00000000         0.00
     NH3       CT      CT3     5   110.000000   566.513600   0.00000000         0.00
       O       CC       CT     5   121.000000   125.520000   0.24400000     41840.00
      OB       CD       CT     5   125.000000   585.760000   0.24420000     16736.00
      OC       CC       CT     5   118.000000   334.720000   0.23880000     41840.00
      OS       CD       CT     5   109.000000   460.240000   0.23260000     16736.00
       N        C       CT     5   112.500000   167.360000   0.00000000         0.00
       C        N      CT3     5   119.500000   351.456000   0.00000000         0.00
       C        N      CT2     5   119.500000   351.456000   0.00000000         0.00
     CT3        N      CT3     5   121.000000   376.560000   0.00000000         0.00
     CT2        N      CT3     5   121.000000   376.560000   0.00000000         0.00
       N      CT3      HA3     5   105.000000   418.400000   0.00000000         0.00
     CT2      CT2   NG2R51     5   113.500000   585.760000   0.00000000         0.00
  NG2R51      CT2      HA2     5   110.100000   279.742240   0.00000000         0.00
  CG2R51   NG2R51      CT2     5   127.100000   585.760000   0.00000000         0.00
     CT2   NG2R51   NG2R50     5   117.900000   585.760000   0.00000000         0.00
     CT1      CT2   CG2R51     5   113.000000   488.272800   0.00000000         0.00
     CT2   CG2R51   CG2R51     5   130.000000   383.254400   0.00000000         0.00
     HA2      CT2   CG2R51     5   109.500000   279.742240   0.00000000         0.00
  NG2R50   CG2R51      CT2     5   120.000000   383.254400   0.00000000         0.00
     CP3      CP2      OH1     5   112.200000   418.400000   0.00000000         0.00
     CP2      CP2      OH1     5   112.500000   418.400000   0.00000000         0.00
     CP2      OH1        H     5   109.500000   551.451200   0.00000000         0.00
     HA1      CP2      OH1     5   111.000000   384.091200   0.00000000         0.00
     HA1      CP2      CP3     5   110.100000   221.752000   0.21790000     18853.10
     HA1      CP2      CP2     5   110.100000   221.752000   0.21790000     18853.10
    CPH1      NR1      CT3     5   126.250000   585.760000   0.00000000         0.00
    CPH2      NR1      CT3     5   126.250000   585.760000   0.00000000         0.00
    CPH1      NR3      CT3     5   126.000000   585.760000   0.00000000         0.00
    CPH2      NR3      CT3     5   126.000000   585.760000   0.00000000         0.00
     NR1      CT3      HA3     5   110.100000   279.742240   0.00000000         0.00
     NR3      CT3      HA3     5   110.100000   279.742240   0.00000000         0.00
     CT2      CT2      CE1     5   112.200000   267.776000   0.00000000         0.00
     CT1      CT2      CE1     5   112.200000   267.776000   0.00000000         0.00
     CT1      CT2    CG1T1     5   112.200000   267.776000   0.00000000         0.00
   CG1T1      CT2      HA2     5   111.500000   393.296000   0.00000000         0.00
   CG1T2    CG1T1      CT2     5   180.000000    92.048000   0.00000000         0.00
  CG2R64        S      CT2     5    91.000000   552.288000   0.00000000         0.00
  NG2R62   CG2R64        S     5   116.000000   317.984000   0.00000000         0.00
     CT2      CT2    NG2S3     5   109.700000   228.446400   0.00000000         0.00
   NG2S3      CT2      HA2     5   105.200000   320.494400   0.00000000         0.00
  CG2R64      NH3       HC     5   109.500000   251.040000   0.20740000     16736.00
     CT1      CT2     HGA3     5   110.100000   289.532800   0.00000000         0.00
     CT2    NG2S3   CG2R64     5   120.000000   418.400000   0.00000000         0.00
     CT2    NG2S3       HC     5   111.500000   353.966400   0.00000000         0.00
  CG2R64    NG2S3       HC     5   113.500000   364.008000   0.00000000         0.00
     CT2      NH3   CG2R64     5   120.000000   418.400000   0.00000000         0.00
     NH3   CG2R64   NG2R62     5   121.700000   552.288000   0.00000000         0.00
  CG2R61    CG321        S     5   115.200000   443.504000   0.00000000         0.00
     CT1      CT3   CG2R51     5   113.000000   488.272800   0.00000000         0.00
     HA3      CT3   CG2R51     5   109.500000   279.742240   0.00000000         0.00
     CT3   CG2R51   CG2R51     5   130.000000   383.254400   0.00000000         0.00
     CT3   CG2R51   NG2R50     5   124.000000   383.254400   0.00000000         0.00
  NG2R50   NG2R50      CT2     5   125.500000   251.040000   0.21500000     16736.00
  CG2R51   NG2R50      CT2     5   125.500000   251.040000   0.21500000     16736.00
  NG2R50      CT2      CT2     5   113.000000   488.272800   0.00000000         0.00
  NG2R50      CT2      HA2     5   109.500000   279.742240   0.00000000         0.00
     CT3        C    NG2D1     5   108.810000   669.440000   0.00000000         0.00
     CT3        C    NG2S0     5   112.500000   167.360000   0.00000000         0.00
     CT3        C    NG2S1     5   116.500000   669.440000   0.00000000         0.00
   CG2O1      NH1      CT3     5   120.000000   418.400000   0.00000000         0.00
   CG322    CG321      CT1     5   113.810000   476.055520   0.25000000      6694.40
    HGA2    CG321      CT1     5   110.100000   279.742240   0.21790000     18853.10
   OG2D1    CG2O1      NH1     5   122.500000   669.440000   0.00000000         0.00
       C      CT1    CG301     5   108.000000   435.136000   0.00000000         0.00
       C      CT1    CG311     5   108.000000   435.136000   0.00000000         0.00
       C      CT1    CG324     5   108.000000   435.136000   0.00000000         0.00
       C      CT1   CG3C51     5   108.000000   435.136000   0.00000000         0.00
   CG2O1    CG311      CT1     5   108.000000   435.136000   0.00000000         0.00
   CG2O1      CT1      NH1     5   107.000000   418.400000   0.00000000         0.00
   CG2O1      NH1        H     5   123.000000   284.512000   0.00000000         0.00
   CG2O2    CG321      CT1     5   108.000000   435.136000   0.00000000         0.00
   CG2O3    CG311      CT1     5   108.000000   435.136000   0.00000000         0.00
   CG2O4    CG311      CT1     5   108.000000   435.136000   0.00000000         0.00
   CG2O5    CG321      CT1     5   113.800000   502.080000   0.00000000         0.00
  CG2R51    CG311      CT1     5   114.000000   488.272800   0.00000000         0.00
  CG2R51    CG321      CT1     5   114.000000   488.272800   0.00000000         0.00
  CG2R61    CG311      CT1     5   107.500000   433.462400   0.00000000         0.00
  CG2R61      CT1      HB1     5   111.000000   359.824000   0.00000000         0.00
  CG2R61      CT1      NH1     5   115.200000   443.504000   0.00000000         0.00
   CG301      CT1      NH1     5   113.500000   585.760000   0.00000000         0.00
   CG311    CG2O1      NH1     5   116.500000   669.440000   0.00000000         0.00
   CG311      CT1      HB1     5   110.100000   288.696000   0.21790000     18853.10
   CG311      CT1      NH1     5   113.500000   585.760000   0.00000000         0.00
   CG321    CG321      CT1     5   113.500000   488.272800   0.25610000      9338.69
   CG321      CT1        C     5   108.000000   435.136000   0.00000000         0.00
   CG321      CT1      HB1     5   110.100000   288.696000   0.21790000     18853.10
   CG321      CT1      NH1     5   113.500000   585.760000   0.00000000         0.00
   CG322      CT1      HB1     5   110.100000   289.532800   0.21790000     18853.10
   CG324      CT1      HB1     5   111.800000   221.752000   0.21790000     18853.10
   CG324      CT1      NH1     5   113.500000   585.760000   0.00000000         0.00
   CG331    CG2O1      NH1     5   116.500000   669.440000   0.00000000         0.00
  CG3C50    CG2O1      NH1     5   116.500000   669.440000   0.00000000         0.00
  CG3C51    CG2O1      NH1     5   116.500000   669.440000   0.00000000         0.00
  CG3C51      CT1      HB1     5   110.100000   289.532800   0.21790000     18853.10
  CG3C51      CT1      NH1     5   113.500000   585.760000   0.00000000         0.00
       C    NG2S0    CG311     5   119.500000   351.456000   0.00000000         0.00
       C    NG2S0    CG321     5   119.500000   351.456000   0.00000000         0.00
       C    NG2S0    CG331     5   119.500000   351.456000   0.00000000         0.00
       C    NG2S0   CG3C50     5   117.000000   502.080000   0.00000000         0.00
       C    NG2S0   CG3C51     5   117.000000   502.080000   0.00000000         0.00
       C    NG2S0   CG3C52     5   117.000000   502.080000   0.00000000         0.00
       C    NG2S1    CG311     5   120.000000   418.400000   0.00000000         0.00
       C    NG2S1    CG321     5   120.000000   418.400000   0.00000000         0.00
       C    NG2S1    CG331     5   120.000000   418.400000   0.00000000         0.00
       C    NG2S1   CG3C51     5   120.000000   418.400000   0.00000000         0.00
       C    NG2S1     HGP1     5   123.000000   284.512000   0.00000000         0.00
     CT1    CG2D1    CG2D2     5   126.000000   401.664000   0.00000000         0.00
     CT1    CG2D1     HGA4     5   116.000000   334.720000   0.00000000         0.00
     CT1   CG2R51   CG2R51     5   130.000000   383.254400   0.00000000         0.00
     CT1   CG2R53   NG2R50     5   123.000000   383.254400   0.00000000         0.00
     CT1   CG2R53   NG2R51     5   120.000000   383.254400   0.00000000         0.00
     CT1   CG2R61   CG2R61     5   120.000000   383.254400   0.00000000         0.00
     CT1   CG2R61   CG2R66     5   120.000000   383.254400   0.00000000         0.00
     CT1    CG301    CG2O3     5   108.000000   435.136000   0.00000000         0.00
     CT1    CG301    CG311     5   113.500000   488.272800   0.25610000      9338.69
     CT1    CG301    CG321     5   113.500000   488.272800   0.25610000      9338.69
     CT1    CG301    CG331     5   113.500000   488.272800   0.25610000      9338.69
     CT1    CG301    OG311     5   110.100000   633.457600   0.00000000         0.00
     CT1    CG311    CG311     5   111.000000   446.432800   0.25610000      6694.40
     CT1    CG311    CG321     5   111.000000   446.432800   0.25610000      6694.40
     CT1    CG311    CG331     5   108.500000   446.432800   0.25610000      6694.40
     CT1    CG311     HGA1     5   110.100000   288.696000   0.21790000     18853.10
     CT1    CG311    OG301     5   109.700000   962.320000   0.00000000         0.00
     CT1    CG311    OG303     5   109.700000   962.320000   0.00000000         0.00
     CT1    CG311    OG311     5   110.100000   633.457600   0.00000000         0.00
     CT1    CG311    SG311     5   112.500000   485.344000   0.00000000         0.00
     CT1    CG321    CG2D1     5   112.200000   267.776000   0.00000000         0.00
     CT1    CG321   CG2DC1     5   112.200000   267.776000   0.00000000         0.00
     CT1    CG321    CG2O1     5   108.000000   435.136000   0.00000000         0.00
     CT1    CG321    CG2O3     5   108.000000   435.136000   0.00000000         0.00
     CT1    CG321    CG2O4     5   113.800000   502.080000   0.00000000         0.00
     CT1    CG321   CG2R61     5   107.500000   433.462400   0.00000000         0.00
     CT1    CG321    CG301     5   113.500000   488.272800   0.25610000      9338.69
     CT1    CG321    CG311     5   113.500000   488.272800   0.25610000      9338.69
     CT1    CG321    CG324     5   110.500000   488.272800   0.25610000      9338.69
     CT1    CG321    CG331     5   113.500000   488.272800   0.25610000      9338.69
     CT1    CG321   CG3C51     5   112.000000   443.504000   0.25610000      6694.40
     CT1    CG321   NG2R51     5   120.000000   585.760000   0.00000000         0.00
     CT1    CG321    NG2S1     5   113.500000   585.760000   0.00000000         0.00
     CT1    CG321    OG302     5   110.100000   633.457600   0.00000000         0.00
     CT1    CG321    OG303     5   110.100000   633.457600   0.00000000         0.00
     CT1    CG321    SG301     5   112.500000   485.344000   0.00000000         0.00
     CT1    CG321    SG311     5   112.500000   485.344000   0.00000000         0.00
     CT1    CG321    SG3O1     5   105.500000   359.824000   0.00000000         0.00
     CT1    CG321    SG3O2     5   105.000000   376.560000   0.00000000         0.00
     CT1    CG322     FGA1     5   112.000000   368.192000   0.23690000     25104.00
     CT1    CG324     HGA2     5   111.800000   221.752000   0.21790000     18853.10
     CT1    CG324    NG2P1     5   110.000000   566.513600   0.00000000         0.00
     CT1    CG324    NG3P3     5   110.000000   566.513600   0.00000000         0.00
     CT1   CG3C51   CG3C52     5   115.000000   485.344000   0.25610000      6694.40
     CT1   CG3C51     HGA1     5   110.100000   289.532800   0.21790000     18853.10
     CT1        C    NG2S0     5   112.500000   167.360000   0.00000000         0.00
     CT1        C    NG2S1     5   116.500000   669.440000   0.00000000         0.00
     CT1      NH1    CG2O1     5   120.000000   418.400000   0.00000000         0.00
     HB1      CT1    CG2D1     5   111.500000   376.560000   0.00000000         0.00
     HB1      CT1   CG2R51     5   109.500000   460.240000   0.00000000         0.00
     HB1      CT1   CG2R53     5   109.500000   460.240000   0.00000000         0.00
     HB1      CT1    CG301     5   110.100000   289.532800   0.21790000     18853.10
     NH1    CG2O1    CG321     5   116.500000   669.440000   0.00000000         0.00
       O        C    NG2S0     5   124.000000   669.440000   0.00000000         0.00
       O        C    NG2S1     5   122.500000   669.440000   0.00000000         0.00
     CT1        C    NG2D1     5   108.810000   669.440000   0.00000000         0.00
       O        C    NG2D1     5   120.540000   669.440000   0.00000000         0.00
   SG2D1    CG2O1      NH1     5   126.520000   343.171680   0.00000000         0.00
     CT1   CG2R51   SG2R50     5   123.700000   313.381600   0.00000000         0.00
     CT1    CG301    SG311     5   109.230000   534.966240   0.00000000         0.00
     CT1    CG321    CG312     5   111.630000   443.671360   0.25105000      6694.40
     CT1    CG321    NG1T1     5   111.650000   310.954880   0.00000000         0.00
     CT1    CG321    SG2P1     5   110.310000   488.691200   0.00000000         0.00
     CT1    CG322    CG331     5   122.040000   383.003360   0.25228000     25104.00
   CG2D1      CT1        C     5   108.000000   435.136000   0.00000000         0.00
  CG2R51      CT1        C     5   109.730000   434.299200   0.00000000         0.00
  CG2R61      CT1        C     5   107.500000   433.462400   0.00000000         0.00
   CG322      CT1        C     5   108.590000   410.032000   0.00000000         0.00
     NH1      CT1    CG2D1     5   113.500000   585.760000   0.00000000         0.00
     NH1      CT1   CG2R51     5   110.320000   443.169280   0.00000000         0.00
     NH1      CT1    CG322     5   112.530000   572.705920   0.00000000         0.00
       C    NG2D1   CG2DC1     5   119.680000   369.698240   0.00000000         0.00
       C    NG2S1   CG2D1O     5   120.490000   360.911840   0.00000000         0.00
       C     CTD1    CG311     5   108.000000   435.136000   0.00000000         0.00
       C     CTD1    CG324     5   108.000000   435.136000   0.00000000         0.00
  CG2R51    CG321     CTD1     5   114.000000   488.272800   0.00000000         0.00
  CG2R51     CTD1        C     5   109.730000   434.299200   0.00000000         0.00
  CG2R61    CG311     CTD1     5   107.500000   433.462400   0.00000000         0.00
  CG2R61     CTD1        C     5   107.500000   433.462400   0.00000000         0.00
  CG2R61     CTD1      HB1     5   111.000000   359.824000   0.00000000         0.00
  CG2R61     CTD1      NH1     5   115.200000   443.504000   0.00000000         0.00
   CG311     CTD1      HB1     5   110.100000   288.696000   0.21790000     18853.10
   CG311     CTD1      NH1     5   113.500000   585.760000   0.00000000         0.00
   CG321    CG321     CTD1     5   113.500000   488.272800   0.25610000      9338.69
   CG321     CTD1        C     5   108.000000   435.136000   0.00000000         0.00
   CG321     CTD1      HB1     5   110.100000   288.696000   0.21790000     18853.10
   CG321     CTD1      NH1     5   113.500000   585.760000   0.00000000         0.00
   CG322    CG321     CTD1     5   113.810000   476.055520   0.25000000      6694.40
   CG322     CTD1        C     5   108.590000   410.032000   0.00000000         0.00
   CG322     CTD1      HB1     5   110.100000   289.532800   0.21790000     18853.10
   CG324     CTD1      HB1     5   111.800000   221.752000   0.21790000     18853.10
   CG324     CTD1      NH1     5   113.500000   585.760000   0.00000000         0.00
    CTD1   CG2R51   CG2R51     5   130.000000   383.254400   0.00000000         0.00
    CTD1   CG2R51   SG2R50     5   123.700000   313.381600   0.00000000         0.00
    CTD1   CG2R61   CG2R61     5   120.000000   383.254400   0.00000000         0.00
    CTD1   CG2R61   CG2R66     5   120.000000   383.254400   0.00000000         0.00
    CTD1    CG311    CG311     5   111.000000   446.432800   0.25610000      6694.40
    CTD1    CG311    CG321     5   111.000000   446.432800   0.25610000      6694.40
    CTD1    CG311    CG331     5   108.500000   446.432800   0.25610000      6694.40
    CTD1    CG311     HGA1     5   110.100000   288.696000   0.21790000     18853.10
    CTD1    CG321   CG2DC1     5   112.200000   267.776000   0.00000000         0.00
    CTD1    CG321   CG2R61     5   107.500000   433.462400   0.00000000         0.00
    CTD1    CG321    CG311     5   113.500000   488.272800   0.25610000      9338.69
    CTD1    CG321    CG324     5   110.500000   488.272800   0.25610000      9338.69
    CTD1    CG321   CG3C51     5   112.000000   443.504000   0.25610000      6694.40
    CTD1    CG321    NG1T1     5   111.650000   310.954880   0.00000000         0.00
    CTD1    CG321   NG2R51     5   120.000000   585.760000   0.00000000         0.00
    CTD1    CG322    CG331     5   122.040000   383.003360   0.25228000     25104.00
    CTD1    CG322     FGA1     5   112.000000   368.192000   0.23690000     25104.00
    CTD1    CG324     HGA2     5   111.800000   221.752000   0.21790000     18853.10
    CTD1    CG324    NG2P1     5   110.000000   566.513600   0.00000000         0.00
     HB1     CTD1   CG2R51     5   109.500000   460.240000   0.00000000         0.00
    HGA2    CG321     CTD1     5   110.100000   279.742240   0.21790000     18853.10
     NH1     CTD1   CG2R51     5   110.320000   443.169280   0.00000000         0.00
     NH1     CTD1    CG322     5   112.530000   572.705920   0.00000000         0.00
     CP1        C    NG2D1     5   116.500000   669.440000   0.00000000         0.00
     CP1        C    NG2S0     5   116.500000   669.440000   0.00000000         0.00
     CP1        C    NG2S1     5   116.500000   669.440000   0.00000000         0.00
     CT2        C    NG2D1     5   116.500000   669.440000   0.00000000         0.00
     CT2        C    NG2S0     5   116.500000   669.440000   0.00000000         0.00
     CT2        C    NG2S1     5   116.500000   669.440000   0.00000000         0.00
  CG2D1O    CG2O1        N     5   116.500000   669.440000   0.00000000         0.00
  CG2D1O    CG2O1      NH1     5   116.500000   669.440000   0.00000000         0.00
   CG311    CG2O1        N     5   116.500000   669.440000   0.00000000         0.00
   CG321    CG2O1        N     5   116.500000   669.440000   0.00000000         0.00
  CG3C50    CG2O1        N     5   116.500000   669.440000   0.00000000         0.00
  CG3C51    CG2O1        N     5   116.500000   669.440000   0.00000000         0.00
   OG2D1    CG2O1        N     5   122.500000   669.440000   0.00000000         0.00
   SG2D1    CG2O1        N     5   122.500000   669.440000   0.00000000         0.00
   CG2O1        N      CP1     5   117.000000   502.080000   0.00000000         0.00
   CG2O1        N      CP3     5   117.000000   502.080000   0.00000000         0.00
   CG2O1      NH1      CT2     5   120.000000   418.400000   0.00000000         0.00
     NH3      CT1    CG321     5   110.000000   566.513600   0.00000000         0.00
   CG321      CT1       CC     5   108.000000   435.136000   0.00000000         0.00
     HN3      CN4     NN3I     5   116.750000   292.880000   0.00000000         0.00
     HN3      CN4     NN2G     5   115.750000   292.880000   0.00000000         0.00
    NN3I      CN4     NN2G     5   127.500000   669.440000   0.00000000         0.00
    CN5G      CN5     NN3I     5   127.000000   836.800000   0.00000000         0.00
    NN2B      CN5     NN3I     5   128.400000  1171.520000   0.00000000         0.00
     CN1     NN2G      CN4     5   129.700000  1046.000000   0.00000000         0.00
     CN4     NN2G      HN2     5   117.000000   338.904000   0.00000000         0.00
     CN4     NN3I      CN5     5   108.400000   753.120000   0.00000000         0.00
    CN3D      CN2      NN1     5   116.400000   920.480000   0.00000000         0.00
    CN3D      CN2      NN3     5   121.300000   251.040000   0.00000000         0.00
     CN2     CN3D      CN3     5   117.800000   836.800000   0.00000000         0.00
     CN2     CN3D      CN9     5   118.000000   334.720000   0.00000000         0.00
     CN3     CN3D      CN9     5   124.200000   334.720000   0.00000000         0.00
    CN3D      CN3      HN3     5   122.000000   251.040000   0.00000000         0.00
    CN3D      CN3      NN2     5   124.200000   836.800000   0.00000000         0.00
    CN3D      CN9      HN9     5   110.100000   279.742240   0.21790000     18853.10
     CN1     NN3G      CN2     5   122.300000  1046.000000   0.00000000         0.00
    NN3G      CN2     NN3G     5   115.200000   585.760000   0.00000000         0.00
    NN3G      CN1     CN5G     5   123.600000   560.656000   0.00000000         0.00
    NN3G      CN1      ON5     5   121.600000   633.457600   0.00000000         0.00
     ON5      CN1     CN5G     5   114.800000   633.457600   0.00000000         0.00
     CN1      ON5      HN5     5   114.700000   502.080000   0.00000000         0.00
    NN2C      CN1      NN2     5   115.500000   292.880000   0.00000000         0.00
     CN2     NN2C      CN1     5   130.200000   292.880000   0.00000000         0.00
    NN2C      CN2      CN3     5   109.500000   292.880000   0.00000000         0.00
     CN2     NN2C      HN2     5   116.100000   338.904000   0.00000000         0.00
     CN1     NN2C      HN2     5   113.700000   338.904000   0.00000000         0.00
    NN2C      CN1     ON1C     5   125.100000   585.760000   0.00000000         0.00
    NN2C      CN2     NN1C     5   126.800000   753.120000   0.00000000         0.00
     CN3      CN2     NN1C     5   123.700000   753.120000   0.00000000         0.00
     CN2     NN1C      HN1     5   113.000000   426.768000   0.00000000         0.00
     CN2     NN2G      CN8     5   117.300000   585.760000   0.00000000         0.00
     CN1      NN3      CN8     5   116.000000   585.760000   0.00000000         0.00
     CN2      NN3      CN8     5   124.900000   585.760000   0.00000000         0.00
     CN9      CN8      NN3     5   114.500000   585.760000   0.00000000         0.00
     NN3      CN8      HN8     5   110.100000   279.742240   0.21790000     18853.10
     CN8      CN8      NN3     5   114.500000   585.760000   0.00000000         0.00
     CNA      CNA      CNA     5   120.000000   334.720000   0.24162000     29288.00
     CNA     CNA2      CNA     5   122.500000   334.720000   0.24162000     29288.00
    CNA2      CNA      CNA     5   119.000000   334.720000   0.24162000     29288.00
    CNA2      CNA     CNA2     5   117.000000   334.720000   0.24162000     29288.00
    CN7B      CNA      CNA     5   121.000000   383.254400   0.00000000         0.00
    CN7B      CNA     CNA2     5   120.000000   383.254400   0.00000000         0.00
     CN9      CNA      CNA     5   121.000000   383.254400   0.00000000         0.00
     CN9      CNA     CNA2     5   120.000000   383.254400   0.00000000         0.00
     CN8     CN7B      CNA     5   107.500000   433.462400   0.00000000         0.00
     ON6     CN7B      CNA     5   107.500000   433.462400   0.00000000         0.00
     HN7     CN7B      CNA     5   111.000000   359.824000   0.00000000         0.00
     HN9      CN9      CNA     5   107.500000   412.542400   0.00000000         0.00
     HNP      CNA      CNA     5   120.000000   251.040000   0.21525000     18409.60
     HNP      CNA     CNA2     5   121.000000   251.040000   0.21525000     18409.60
     HN3      CNA     CNA2     5   121.500000   251.040000   0.21525000     18409.60
     FNA     CNA2      CNA     5   118.750000   502.080000   0.00000000         0.00
     CN1     CN3T     CNE1     5   117.000000   317.984000   0.00000000         0.00
     CN3     CN3T     CNE1     5   126.300000   317.984000   0.00000000         0.00
    CN3T     CNE1     CNE2     5   122.400000   401.664000   0.00000000         0.00
    CN3T     CNE1     HNE1     5   119.600000   334.720000   0.00000000         0.00
    CNE2     CNE1     HNE1     5   118.000000   351.456000   0.00000000         0.00
    HNE2     CNE2     CNE1     5   120.500000   376.560000   0.00000000         0.00
    HNE2     CNE2     HNE2     5   119.000000   158.992000   0.00000000         0.00
    NN2G      CN1      NN2     5   107.800000   585.760000   0.00000000         0.00
    NN2G      CN1     ON1C     5   125.500000   418.400000   0.00000000         0.00
    NN2G      CN2      CN3     5   122.200000   585.760000   0.00000000         0.00
    NN2G      CN2     CN3D     5   122.200000   585.760000   0.00000000         0.00
     NN1      CN8      HN8     5   108.000000   401.664000   0.00000000         0.00
     NN1      CN8      CN9     5   113.500000   585.760000   0.00000000         0.00
     CN8      NN1      HN1     5   117.000000   292.880000   0.00000000         0.00
     CN2      NN1      CN8     5   121.500000   334.720000   0.00000000         0.00
     CN1      NN3      HN2     5   121.200000   309.616000   0.00000000         0.00
     CN2      NN3      HN2     5   115.400000   338.904000   0.00000000         0.00
    NN2B      CN4      NN1     5   113.000000   585.760000   0.00000000         0.00
     NN4      CN4      NN1     5   125.000000   585.760000   0.00000000         0.00
     CN4      NN1      CN3     5   120.000000   418.400000   0.00000000         0.00
     NN1      CN3      CN3     5   120.000000   334.720000   0.24162000     29288.00
     CN3      CN3      CN3     5   120.000000   334.720000   0.24162000     29288.00
     CN4      NN1      HN2     5   117.000000   284.512000   0.00000000         0.00
     HN2      NN1      CN3     5   117.000000   284.512000   0.00000000         0.00
     CN8      NNG      CNG     5   120.000000   521.326400   0.00000000         0.00
     NNG      CNG      NNG     5   120.000000   435.136000   0.23642000     75312.00
     HN1      NNG      HN1     5   120.000000   209.200000   0.00000000         0.00
     NNG      CN8      HN8     5   107.500000   430.952000   0.00000000         0.00
     NNG      CN8      CN8     5   107.500000   566.513600   0.00000000         0.00
     CNG      NNG      HN1     5   120.000000   410.032000   0.00000000         0.00
     NN1      CN8      CN8     5   113.500000   585.760000   0.00000000         0.00
     CN8      NNG      HN1     5   120.000000   338.067200   0.00000000         0.00
     HN2      NN1     CN8B     5   109.000000   292.880000   0.00000000         0.00
     NN1     CN8B      HN8     5   110.000000   401.664000   0.00000000         0.00
    CN8B      NN1        P     5   118.300000   920.480000   0.23300000     29288.00
     HN2      NN1        P     5   123.600000   251.040000   0.23500000     33472.00
     NN1        P      ON2     5   103.200000   502.080000   0.00000000         0.00
     NN1        P      ON3     5   110.600000  1171.520000   0.00000000         0.00
     NN1     CN8B     CN7B     5   110.000000   365.681600   0.00000000         0.00
     NN1        P      ON4     5   103.200000   502.080000   0.00000000         0.00
     HN7      CN7      NN1     5   110.000000   401.664000   0.00000000         0.00
     CN7      NN1        P     5   118.300000   920.480000   0.23300000     29288.00
     HN2      NN1      CN7     5   109.000000   292.880000   0.00000000         0.00
     NN1      CN7      CN7     5   110.000000   365.681600   0.00000000         0.00
     NN1      CN7     CN7B     5   110.000000   365.681600   0.00000000         0.00
     NN1      CN7      CN8     5   110.000000   365.681600   0.00000000         0.00
     NN1     CN8B      CN7     5   110.000000   365.681600   0.00000000         0.00
     HN2      NN1      HN2     5   106.000000   326.352000   0.00000000         0.00
    CN8B      ON2      HN8     5   114.700000   502.080000   0.00000000         0.00
     CN7      ON5      HN7     5   114.700000   502.080000   0.00000000         0.00
       O       CC        N     5   124.000000   669.440000   0.00000000         0.00
       N       CC      CT2     5   112.500000   167.360000   0.00000000         0.00
     NN2      CT2      HA2     5   110.100000   279.742240   0.00000000         0.00
     NN2      CT2       CC     5   110.000000   365.681600   0.00000000         0.00
    NN2B      CT2      HA2     5   110.100000   279.742240   0.00000000         0.00
    NN2B      CT2       CC     5   110.000000   365.681600   0.00000000         0.00
    CN1T     NN2B      CT2     5   116.000000   585.760000   0.00000000         0.00
     CN3     NN2B      CT2     5   122.000000   585.760000   0.00000000         0.00
     CN4      NN2      CT2     5   127.800000   585.760000   0.00000000         0.00
     CN5      NN2      CT2     5   125.900000   585.760000   0.00000000         0.00
     CN1      NN2      CT2     5   116.000000   585.760000   0.00000000         0.00
     CN3      NN2      CT2     5   122.000000   585.760000   0.00000000         0.00
     CN4     NN2B      CT2     5   127.800000   585.760000   0.00000000         0.00
     CN5     NN2B      CT2     5   125.900000   585.760000   0.00000000         0.00
       N      CT2        C     5   110.000000   365.681600   0.00000000         0.00
       N      CT2      HB2     5   107.500000   430.952000   0.00000000         0.00
     CT2        N      CT2     5   117.000000   292.880000   0.00000000         0.00
     CT2        N       CC     5   120.000000   418.400000   0.00000000         0.00
     HB2      CT2      CT2     5   109.500000   418.400000   0.00000000         0.00
     HN1      NH1      CT2     5   117.000000   292.880000   0.00000000         0.00
     CT2      CT2        N     5   113.500000   585.760000   0.00000000         0.00
      CC      CT2        N     5   110.000000   365.681600   0.00000000         0.00
     CT2        N     CT2P     5   117.000000   292.880000   0.00000000         0.00
    CT2P        N       CC     5   120.000000   418.400000   0.00000000         0.00
       N     CT2P      HB2     5   107.500000   430.952000   0.00000000         0.00
     CT2     CT2P        N     5   113.500000   585.760000   0.00000000         0.00
     HB2     CT2P      HB2     5   115.000000   301.248000   0.00000000         0.00
     HB2     CT2P      CT2     5   109.500000   418.400000   0.00000000         0.00
     NH1      CT2     CT2P     5   113.500000   585.760000   0.00000000         0.00
     HB2      CT2     CT2P     5   109.500000   418.400000   0.00000000         0.00
     NH3      CT2     CT2P     5   110.000000   566.513600   0.00000000         0.00
     CN7     CN7B     ON2M     5   108.670000   485.344000   0.00000000         0.00
    CN7B     CN7B     ON2M     5   106.670000   485.344000   0.00000000         0.00
    CN7B     ON2M      CN9     5   108.000000   543.920000   0.00000000         0.00
     HN7     CN7B     ON2M     5   109.000000   384.091200   0.00000000         0.00
    ON2M      CN9      HN9     5   108.890000   384.091200   0.00000000         0.00
     CN7     CN7B      NN2     5   111.000000   920.480000   0.00000000         0.00
     CN7     CN7B     NN2B     5   111.000000   920.480000   0.00000000         0.00
     CN8      CN7      ON6     5   104.000000   836.800000   0.00000000         0.00
     CN8      CN7     ON6B     5   110.000000   836.800000   0.00000000         0.00
    CN7B     CN7B      CN8     5    96.000000   920.480000   0.00000000         0.00
     CN8     CN7B      ON2     5   109.700000   962.320000   0.00000000         0.00
     CN6     CN7E      CN8     5    62.500000   446.432800   0.00000000         0.00
    CN7E      CN6      CN8     5    60.500000   446.432800   0.00000000         0.00
    CN7E      CN8      CN6     5    58.500000   446.432800   0.00000000         0.00
     HN7      CN7     CN7E     5   110.100000   288.696000   0.21790000     18853.10
     HN7     CN7E      CN7     5   110.100000   288.947040   0.21790000     18853.10
     HN7     CN7E      HN7     5   109.000000   297.064000   0.18020000      4518.72
    CN7E      CN7      ON2     5   109.700000   962.320000   0.00000000         0.00
     ON5      CN7     CN7E     5   110.000000   633.457600   0.00000000         0.00
     CN8      CN7     CN7E     5   101.900000   669.440000   0.00000000         0.00
     CN7      CN8      CN7     5   100.000000   669.440000   0.00000000         0.00
     CN6      CN7      CN8     5   103.700000   446.432800   0.25610000      6694.40
    CN7E      CN6      CN7     5   113.700000   446.432800   0.25610000      6694.40
     CN8      CN6      CN7     5   108.700000   446.432800   0.25610000      6694.40
     CN8     CN7E      CN7     5   111.000000   446.432800   0.25610000      6694.40
     CN6     CN7E      CN7     5   111.000000   446.432800   0.25610000      6694.40
     HN7      CN7      CN6     5   110.100000   288.696000   0.21790000     18853.10
     CN6     CN8B      CN7     5   105.500000   669.440000   0.25610000      6694.40
    CN8B      CN7     CN7E     5   101.000000   669.440000   0.00000000         0.00
    CN7E     CN7E      CN7     5   102.000000   446.432800   0.25610000      6694.40
     CN6     CN7E     CN7E     5   116.000000   446.432800   0.25610000      6694.40
    CN7E     CN7E      CN8     5   108.000000   446.432800   0.25610000      6694.40
    CN8B      CN6     CN7E     5   117.000000   446.432800   0.25610000      6694.40
    CN7E     CN7E     CN8B     5   111.000000   446.432800   0.25610000      6694.40
    CN7E     CN7E      HN7     5   110.100000   288.696000   0.21790000     18853.10
     HN7     CN7E      CN6     5   110.100000   288.696000   0.21790000     18853.10
     HN8      CN8      CN6     5   110.100000   288.696000   0.21790000     18853.10
     HN7      CN6      CN7     5   110.100000   288.696000   0.21790000     18853.10
     HN7      CN6     CN7E     5   110.100000   288.696000   0.21790000     18853.10
     HN7      CN6      CN8     5   110.100000   288.696000   0.21790000     18853.10
     HN7      CN6     CN8B     5   110.100000   288.696000   0.21790000     18853.10
     HN7     CN7E      CN8     5   110.100000   288.696000   0.21790000     18853.10
     HN8      CN8     CN7E     5   110.100000   288.696000   0.21790000     18853.10
     HN7      CN6      HN7     5   109.000000   297.064000   0.18020000      4518.72
     CN8      CN6      NN2     5   113.700000   585.760000   0.00000000         0.00
    CN8B      CN6      NN2     5   113.700000   585.760000   0.00000000         0.00
     CN8      CN7      NN2     5   113.700000   920.480000   0.00000000         0.00
     CN1      NN2      CN7     5   118.400000   376.560000   0.00000000         0.00
     CN1      NN2      CN6     5   120.000000   376.560000   0.00000000         0.00
     CN3      NN2      CN6     5   115.900000   376.560000   0.00000000         0.00
     CN5      NN2      CN6     5   126.100000   376.560000   0.00000000         0.00
     CN4      NN2      CN6     5   127.600000   376.560000   0.00000000         0.00
    CN1T      NN2      CN7     5   118.400000   376.560000   0.00000000         0.00
     CN3      NN2      CN7     5   118.400000   376.560000   0.00000000         0.00
     CN5      NN2      CN7     5   126.500000   376.560000   0.00000000         0.00
     CN4      NN2      CN7     5   126.300000   376.560000   0.00000000         0.00
     HN7      CN7      NN2     5   111.000000   359.824000   0.00000000         0.00
     CN7      CN6     NN2B     5   113.700000   585.760000   0.00000000         0.00
    CN7E      CN6     NN2B     5   113.700000   585.760000   0.00000000         0.00
    CN7E      CN6      NN2     5   113.700000   585.760000   0.00000000         0.00
     CN8      CN6     NN2B     5   113.700000   585.760000   0.00000000         0.00
    CN8B      CN6     NN2B     5   113.700000   585.760000   0.00000000         0.00
     CN7      CN7     NN2B     5   108.000000   920.480000   0.00000000         0.00
     CN8      CN7     NN2B     5   113.700000   920.480000   0.00000000         0.00
    CN7E      CN7     NN2B     5   108.000000   920.480000   0.00000000         0.00
    CN7E      CN7      NN2     5   108.000000   920.480000   0.00000000         0.00
    CN1T     NN2B      CN6     5   118.400000   376.560000   0.00000000         0.00
     CN3     NN2B      CN6     5   119.600000   376.560000   0.00000000         0.00
     CN5     NN2B      CN6     5   126.500000   376.560000   0.00000000         0.00
     CN4     NN2B      CN6     5   126.300000   376.560000   0.00000000         0.00
    CN1T     NN2B      CN7     5   118.400000   376.560000   0.00000000         0.00
     CN3     NN2B      CN7     5   118.400000   376.560000   0.00000000         0.00
     CN5     NN2B      CN7     5   126.500000   376.560000   0.00000000         0.00
     CN4     NN2B      CN7     5   126.300000   376.560000   0.00000000         0.00
     HN7      CN7     NN2B     5   111.000000   359.824000   0.00000000         0.00
     CN7      CN6     CN8B     5   111.000000   446.432800   0.25610000      6694.40
     CN7     CN7E     CN8B     5   110.000000   376.560000   0.00000000         0.00
     CN8      CN6     CN8B     5   111.000000   446.432800   0.25610000      6694.40
     CN6     CN8B      ON2     5   110.100000   633.457600   0.00000000         0.00
     CN6     CN8B      ON5     5   110.100000   633.457600   0.00000000         0.00
    CN7E     CN8B      ON2     5   110.100000   633.457600   0.00000000         0.00
    CN7E     CN8B      ON5     5   110.100000   633.457600   0.00000000         0.00
     HN7     CN7E     CN8B     5   110.100000   288.696000   0.21790000     18853.10
     HN8     CN8B     CN7E     5   110.100000   288.696000   0.21790000     18853.10
     HN8     CN8B      CN6     5   110.100000   288.696000   0.21790000     18853.10
     CN6      CN7      ON2     5   110.100000   633.457600   0.00000000         0.00
    CN8B      CN7      ON2     5   110.100000   633.457600   0.00000000         0.00
     CN6      CN7      ON5     5   110.100000   633.457600   0.00000000         0.00
     CN8     CN8B      CN8     5   113.600000   488.272800   0.25610000      9338.69
    ON6B     CN7B      CN7     5   107.500000   962.320000   0.00000000         0.00
    CN7B     ON6B     CN8B     5   111.000000   702.912000   0.00000000         0.00
    ON6B     CN8B      CN7     5   107.000000  1087.840000   0.00000000         0.00
    CN8B      CN7     CN8B     5   112.000000   426.768000   0.00000000         0.00
    ON6B     CN8B      HN8     5   107.300000   585.760000   0.00000000         0.00
     HN2     NN2U      CN5     5   114.400000   338.904000   0.00000000         0.00
     HN8      CN8     NN2G     5   109.500000   430.952000   0.00000000         0.00
     HN9      CN9     NN2G     5   109.500000   430.952000   0.00000000         0.00
    NN2B      CN5     NN2U     5   128.000000   836.800000   0.00000000         0.00
    NN2U      CN5     CN5G     5   127.400000   502.080000   0.00000000         0.00
     CN5     NN2U     CN1T     5   123.900000    83.680000   0.00000000         0.00
    NN2U     CN1T     NN2G     5   114.000000   418.400000   0.00000000         0.00
    CN1T     NN2G      CN1     5   127.400000   418.400000   0.00000000         0.00
     CN1     NN2G      CN8     5   116.300000   585.760000   0.00000000         0.00
    CN1T     NN2G      CN8     5   116.300000   585.760000   0.00000000         0.00
     CN1     NN2G      CN9     5   116.300000   585.760000   0.00000000         0.00
    CN1T     NN2G      CN9     5   116.300000   585.760000   0.00000000         0.00
    NN2G      CN8      CN8     5   113.700000   585.760000   0.00000000         0.00
    NN2G      CN8      CN9     5   113.500000   585.760000   0.00000000         0.00
     ON1     CN1T     NN2G     5   121.600000  1087.840000   0.00000000         0.00
     HA3      CT3     CTD1     5   110.100000   279.742240   0.21790000     18853.10
     CT1     CTD1        C     5   108.000000   435.136000   0.00000000         0.00
    CTD1      CT2       CA     5   107.500000   433.462400   0.00000000         0.00
    CTD1      CT2       CC     5   108.000000   435.136000   0.00000000         0.00
    CTD1      CT2       CD     5   108.000000   435.136000   0.00000000         0.00
    CTD1      CT2     CPH1     5   113.000000   488.272800   0.00000000         0.00
    CTD1      CT2      CT1     5   113.500000   488.272800   0.25610000      9338.69
    CTD1       CD      OH1     5   110.500000   460.240000   0.00000000         0.00
    CTD1      NH1        C     5   120.000000   418.400000   0.00000000         0.00
     CT2     CTD1        C     5   108.000000   435.136000   0.00000000         0.00
     CT2     CTD1       CC     5   108.000000   435.136000   0.00000000         0.00
     CT2     CTD1       CD     5   108.000000   435.136000   0.00000000         0.00
     CT2      CT1     CTD1     5   111.000000   446.432800   0.25610000      6694.40
     CT2      CT2     CTD1     5   113.500000   488.272800   0.25610000      9338.69
     CT2      CT3     CTD1     5   113.500000   488.272800   0.25610000      9338.69
    CT2A     CTD1       CC     5   108.000000   435.136000   0.00000000         0.00
     CT3     CTD1        C     5   108.000000   435.136000   0.00000000         0.00
     CT3     CTD1       CC     5   108.000000   435.136000   0.00000000         0.00
     CT3     CTD1      CT1     5   108.500000   446.432800   0.25610000      6694.40
     CT3     CTD1      CT2     5   114.000000   446.432800   0.25610000      6694.40
     CT3     CTD1      CT3     5   114.000000   446.432800   0.25610000      6694.40
     CT3      CT2     CTD1     5   113.500000   488.272800   0.25610000      9338.69
     CT3      CT1     CTD1     5   108.500000   446.432800   0.25610000      6694.40
      CY      CT2     CTD1     5   114.000000   488.272800   0.00000000         0.00
       H      NH1     CTD1     5   117.000000   292.880000   0.00000000         0.00
       H      OH1     CTD1     5   106.000000   481.160000   0.00000000         0.00
      HA     CTD1        C     5   109.500000   276.144000   0.21630000     25104.00
      HA     CTD1       CD     5   109.500000   276.144000   0.21630000     25104.00
      HA     CTD1      CT1     5   110.100000   288.696000   0.21790000     18853.10
      HA     CTD1      CT2     5   110.100000   288.696000   0.21790000     18853.10
      HA     CTD1      CT3     5   110.100000   288.696000   0.21790000     18853.10
      HA     CTD1       HA     5   109.000000   297.064000   0.18020000      4518.72
      HA      CT2     CTD1     5   110.100000   279.742240   0.21790000     18853.10
      HA      CT3     CTD1     5   110.100000   279.742240   0.21790000     18853.10
     HA1      CT1     CTD1     5   110.100000   288.696000   0.21790000     18853.10
     HA2      CT2     CTD1     5   110.100000   221.752000   0.21790000     18853.10
     HB1     CTD1        C     5   109.500000   418.400000   0.00000000         0.00
     HB1     CTD1       CC     5   109.500000   418.400000   0.00000000         0.00
     HB1     CTD1       CD     5   109.500000   418.400000   0.00000000         0.00
     HB1     CTD1      CT1     5   111.000000   292.880000   0.00000000         0.00
     HB1     CTD1      CT2     5   111.000000   292.880000   0.00000000         0.00
     HB1     CTD1      CT3     5   111.000000   292.880000   0.00000000         0.00
      HC      NH3     CTD1     5   109.500000   251.040000   0.20740000     16736.00
       N        C     CTD1     5   112.500000   167.360000   0.00000000         0.00
     NH1        C     CTD1     5   116.500000   669.440000   0.00000000         0.00
     NH1     CTD1        C     5   107.000000   418.400000   0.00000000         0.00
     NH1     CTD1       CC     5   107.000000   418.400000   0.00000000         0.00
     NH1     CTD1       CD     5   107.000000   418.400000   0.00000000         0.00
     NH1     CTD1      CT1     5   113.500000   585.760000   0.00000000         0.00
     NH1     CTD1      CT2     5   113.500000   585.760000   0.00000000         0.00
     NH1     CTD1      CT3     5   113.500000   585.760000   0.00000000         0.00
     NH1     CTD1      HB1     5   108.000000   401.664000   0.00000000         0.00
     NH2       CC     CTD1     5   116.500000   418.400000   0.24500000     41840.00
     NH3     CTD1        C     5   110.000000   365.681600   0.00000000         0.00
     NH3     CTD1       CC     5   110.000000   365.681600   0.00000000         0.00
     NH3     CTD1      CT1     5   110.000000   566.513600   0.00000000         0.00
     NH3     CTD1      CT2     5   110.000000   566.513600   0.00000000         0.00
     NH3     CTD1      CT3     5   110.000000   566.513600   0.00000000         0.00
     NH3     CTD1      HB1     5   107.500000   430.952000   0.00000000         0.00
       O        C     CTD1     5   121.000000   669.440000   0.00000000         0.00
       O       CC     CTD1     5   121.000000   125.520000   0.24400000     41840.00
      OB       CD     CTD1     5   125.000000   585.760000   0.24420000     16736.00
      OC       CC     CTD1     5   118.000000   334.720000   0.23880000     41840.00
     OH1      CT1     CTD1     5   110.100000   633.457600   0.00000000         0.00
     OH1      CT2     CTD1     5   110.100000   633.457600   0.00000000         0.00
      OS       CD     CTD1     5   109.000000   460.240000   0.23260000     16736.00
       S      CT2     CTD1     5   112.500000   485.344000   0.00000000         0.00
      SM      CT2     CTD1     5   112.500000   485.344000   0.00000000         0.00
     NH1     CTD1     CT2A     5   113.500000   585.760000   0.00000000         0.00
     HB1     CTD1     CT2A     5   111.000000   292.880000   0.00000000         0.00
    CT2A     CTD1        C     5   108.000000   435.136000   0.00000000         0.00
    CTD1     CT2A      HA2     5   110.100000   221.752000   0.21790000     18853.10
    CTD1     CT2A      CT2     5   113.500000   488.272800   0.25610000      9338.69
    CTD1     CT2A     CPH1     5   113.000000   488.272800   0.00000000         0.00
       C        N     CPD1     5   117.000000   502.080000   0.00000000         0.00
       N        C     CPD1     5   112.500000   167.360000   0.00000000         0.00
       N     CPD1      HB1     5   112.000000   401.664000   0.00000000         0.00
       N     CPD1      CP2     5   110.800000   585.760000   0.00000000         0.00
       N     CPD1        C     5   108.200000   418.400000   0.00000000         0.00
       N     CPD1       CC     5   108.200000   418.400000   0.00000000         0.00
       N     CPD1       CD     5   108.200000   418.400000   0.00000000         0.00
     NH1        C     CPD1     5   116.500000   669.440000   0.00000000         0.00
     NH2       CC     CPD1     5   112.500000   669.440000   0.00000000         0.00
      NP     CPD1        C     5   106.000000   418.400000   0.00000000         0.00
      NP     CPD1       CC     5   106.000000   418.400000   0.00000000         0.00
      NP     CPD1       CD     5   106.000000   418.400000   0.00000000         0.00
      NP     CPD1      CP2     5   108.500000   585.760000   0.00000000         0.00
      NP     CPD1      HB1     5   107.500000   430.952000   0.00000000         0.00
     HB1     CPD1      CP2     5   118.000000   292.880000   0.00000000         0.00
     HB1     CPD1        C     5   112.000000   418.400000   0.00000000         0.00
     HB1     CPD1       CC     5   112.000000   418.400000   0.00000000         0.00
     HB1     CPD1       CD     5   112.000000   418.400000   0.00000000         0.00
      HC       NP     CPD1     5   109.500000   276.144000   0.20560000      3347.20
     CP2     CPD1        C     5   112.300000   435.136000   0.00000000         0.00
     CP2     CPD1       CC     5   112.300000   435.136000   0.00000000         0.00
     CP2     CPD1       CD     5   112.300000   418.400000   0.00000000         0.00
     CP2      CP2     CPD1     5   108.500000   585.760000   0.00000000         0.00
    CPD1      CP2      HA2     5   110.100000   279.742240   0.21790000     18853.10
    CPD1        C        O     5   118.000000   669.440000   0.00000000         0.00
    CPD1       CC        O     5   118.000000   669.440000   0.00000000         0.00
     CP3        N     CPD1     5   114.200000   836.800000   0.00000000         0.00
     CP3       NP     CPD1     5   111.000000   836.800000   0.00000000         0.00
      OB       CD     CPD1     5   125.000000   585.760000   0.24420000     16736.00
      OC       CC     CPD1     5   118.000000   334.720000   0.23880000     41840.00
      OS       CD     CPD1     5   109.000000   460.240000   0.23260000     16736.00
    CC1A     CC1A      CT3     5   123.500000   401.664000   0.00000000         0.00
     HA2      CT2     CC1A     5   111.500000   376.560000   0.00000000         0.00
     HA3      CT3     CC1A     5   111.500000   351.456000   0.00000000         0.00
     HA3      CT3     CC1B     5   111.500000   351.456000   0.00000000         0.00
     HE1     CC1A     CC1A     5   119.000000   351.456000   0.00000000         0.00
     HE1     CC1B     CC1B     5   119.000000   351.456000   0.00000000         0.00
     HE1     CC1A      CT3     5   117.500000   351.456000   0.00000000         0.00
     HE1     CC1B      CT3     5   117.500000   184.096000   0.00000000         0.00
     HE1     CC1A      CC2     5   118.000000   351.456000   0.00000000         0.00
     HE1     CC1B      CC2     5   118.000000   351.456000   0.00000000         0.00
     HE2      CC2     CC1A     5   120.500000   376.560000   0.00000000         0.00
     HE2      CC2     CC1B     5   120.500000   376.560000   0.00000000         0.00
     HE1     CC1B     CC1A     5   118.000000   351.456000   0.00000000         0.00
     HE1     CC1A     CC1B     5   118.000000   351.456000   0.00000000         0.00
    CC1B     CC1A      CC2     5   123.500000   401.664000   0.00000000         0.00
    CC1A     CC1B      CC2     5   123.500000   401.664000   0.00000000         0.00
     HE2      CC2      HE2     5   119.000000   158.992000   0.00000000         0.00
    CC1A     CC1B     CC1B     5   123.500000   401.664000   0.00000000         0.00
    CC1B     CC1B      CT3     5   123.500000   401.664000   0.00000000         0.00
    CC1A       CT      CT3     5   112.200000   267.776000   0.00000000         0.00
    CC1A       CT      CT2     5   112.200000   267.776000   0.00000000         0.00
    CC1A      CT2      CT2     5   112.200000   267.776000   0.00000000         0.00
    CC1A     CC1A     CC1B     5   123.500000   401.664000   0.00000000         0.00
    CC1A     CC1A       CT     5   123.500000   401.664000   0.00000000         0.00
    CC1A     CC1A      CT2     5   123.500000   401.664000   0.00000000         0.00
    CC1B     CC1A       CT     5   123.500000   401.664000   0.00000000         0.00
     CT2     CC1A      CT3     5   123.500000   401.664000   0.00000000         0.00
     CC2     CC1A      CT3     5   123.500000   401.664000   0.00000000         0.00
    CC1B     CC1A      CT3     5   113.000000   401.664000   0.00000000         0.00
     CT3     CC1B      CT3     5   113.000000   393.296000   0.00000000         0.00
     CT2       CT      CT3     5   113.500000   488.272800   0.25610000      9338.69
     CT3       CT      CT3     5   113.500000   488.272800   0.25610000      9338.69
      CT      CT2      CT2     5   113.500000   488.272800   0.25610000      9338.69
      CT      CT2      HA2     5   110.100000   221.752000   0.21790000     18853.10
      CT      CT3      HA3     5   110.100000   279.742240   0.21790000     18853.10
      CT     CC1A      CT3     5   123.500000   401.664000   0.00000000         0.00
      CA      NH1        C     5   120.000000   418.400000   0.00000000         0.00
       H      NH1       CA     5   117.000000   284.512000   0.00000000         0.00
     NH1       CA       CA     5   120.000000   334.720000   0.24162000     29288.00
     CT3     CC1A      CT3     5   125.200000   393.296000   0.00000000         0.00
    CC1A     CC1A        C     5   123.500000   401.664000   0.00000000         0.00
     HE1     CC1A        C     5   119.500000   435.136000   0.00000000         0.00
       O        C     CC1A     5   122.500000   669.440000   0.00000000         0.00
     NH1        C     CC1A     5   116.500000   669.440000   0.00000000         0.00
     HE1     CC1A      CT2     5   116.000000   334.720000   0.00000000         0.00
     OH1      CT2     CC1A     5   110.100000   633.457600   0.00000000         0.00
     CT2     CC1A      CC2     5   126.000000   234.304000   0.00000000         0.00
     CC2     CC1A       CD     5   120.000000   502.080000   0.00000000         0.00
    CC1A     CC1A       CD     5   120.000000   502.080000   0.00000000         0.00
     HE1     CC1A       CD     5   122.000000   267.776000   0.00000000         0.00
    CC1A       CD        O     5   124.000000   627.600000   0.00000000         0.00
    CC1A       CD      HR1     5   115.000000   125.520000   0.00000000         0.00
     HE1     CC1A       CC     5   119.500000   435.136000   0.00000000         0.00
     CC2     CC1A       CC     5   119.000000   334.720000   0.25267000     29288.00
    CC1A       CC       OC     5   118.000000   334.720000   0.23880000     41840.00
    CC1A     CC1A       CC     5   123.500000   401.664000   0.00000000         0.00
     CT3      NS1     CC1B     5   111.000000   560.656000   0.00000000         0.00
     NS1     CC1B      CT3     5   123.000000   435.136000   0.00000000         0.00
     NS1     CC1B      HE1     5   119.500000   317.984000   0.00000000         0.00
     HA3      CT3      NS1     5   113.500000   351.456000   0.00000000         0.00
     CT3      NS2     CC1B     5   123.600000   560.656000   0.00000000         0.00
     CT3      NS2       HC     5   117.400000   317.984000   0.00000000         0.00
    CC1B      NS2       HC     5   118.800000   317.984000   0.00000000         0.00
     NS2     CC1B      CT3     5   125.600000   334.720000   0.00000000         0.00
     NS2     CC1B      HR1     5   114.000000   317.984000   0.00000000         0.00
     CT3     CC1B      HR1     5   120.400000   351.456000   0.00000000         0.00
     HA3      CT3      NS2     5   110.100000   351.456000   0.00000000         0.00
     NS2     CC1B     CC1A     5   125.600000   334.720000   0.00000000         0.00
     HR1     CC1B     CC1A     5   120.400000   351.456000   0.00000000         0.00
     CT2      CT2      NS1     5   110.000000   566.513600   0.00000000         0.00
     HA2      CT2      NS1     5   113.500000   351.456000   0.00000000         0.00
     CT2      NS1     CC1B     5   111.000000   560.656000   0.00000000         0.00
     NS1     CC1B     CC1A     5   123.000000   334.720000   0.00000000         0.00
     CT2      NS2     CC1B     5   123.600000   560.656000   0.00000000         0.00
     CT2      NS2       HC     5   117.400000   317.984000   0.00000000         0.00
     CT2      CT2      NS2     5   110.000000   566.513600   0.00000000         0.00
     HA2      CT2      NS2     5   110.100000   351.456000   0.00000000         0.00
  CC3161   CC3162    OG301     5   109.700000   962.320000   0.00000000         0.00
   OG301   CC3162     HCA1     5   109.500000   502.080000   0.00000000         0.00
  CC3162    OG301   CG3C51     5   107.000000   543.920000   0.00000000         0.00
   OG301   CC3162   OC3C61     5   112.000000   753.120000   0.00000000         0.00
     CN3     NN2B    CG331     5   120.500000   585.760000   0.00000000         0.00
    CN1T     NN2B    CG331     5   115.400000   585.760000   0.00000000         0.00
    NN2B    CG331     HGA3     5   110.100000   279.742240   0.21790000     18853.10
     CN3      NN2    CG331     5   120.500000   585.760000   0.00000000         0.00
     CN1      NN2    CG331     5   115.400000   585.760000   0.00000000         0.00
     NN2    CG331     HGA3     5   110.100000   279.742240   0.21790000     18853.10
     CN4      NN2    CG331     5   127.800000   585.760000   0.00000000         0.00
     CN5      NN2    CG331     5   125.900000   585.760000   0.00000000         0.00
     CN4     NN2B    CG331     5   127.800000   585.760000   0.00000000         0.00
     CN5     NN2B    CG331     5   125.900000   585.760000   0.00000000         0.00
    CN7B     CN7B    OG301     5   107.000000   635.968000   0.00000000         0.00
     CN7     CN7B    OG301     5   106.500000   502.080000   0.00000000         0.00
   OG301     CN7B      HN7     5   108.500000   384.091200   0.00000000         0.00
   CG331    OG301     CN7B     5   107.000000   543.920000   0.00000000         0.00
    CN7B     CN7B    OC301     5   107.000000   635.968000   0.00000000         0.00
     CN7     CN7B    OC301     5   106.500000   502.080000   0.00000000         0.00
   OC301     CN7B      HN7     5   108.500000   384.091200   0.00000000         0.00
    CN7B    OC301   CC3152     5   107.000000   460.240000   0.00000000         0.00
  CC3153    CC321    OC30P     5   110.100000   633.457600   0.00000000         0.00
   CC321    OC30P       PC     5   120.000000   167.360000   0.23300000     29288.00
  CG2R62   NG2R61     CN7B     5   119.600000   376.560000   0.00000000         0.00
  CG2R63   NG2R61     CN7B     5   118.400000   376.560000   0.00000000         0.00
  NG2R61     CN7B     ON6B     5   112.000000   920.480000   0.00000000         0.00
  NG2R61     CN7B      HN7     5   111.000000   359.824000   0.00000000         0.00
  NG2R61     CN7B     CN7B     5   111.000000   920.480000   0.00000000         0.00
  CG2RC0   NG2R51     CN7B     5   126.300000   376.560000   0.00000000         0.00
  CG2R53   NG2R51     CN7B     5   126.900000   376.560000   0.00000000         0.00
    ON6B     CN7B   NG2R51     5   112.000000   920.480000   0.00000000         0.00
    CN7B     CN7B   NG2R51     5   111.000000   920.480000   0.00000000         0.00
     HN7     CN7B   NG2R51     5   111.000000   359.824000   0.00000000         0.00
  CG2R62   CG2R62     CN7B     5   121.000000   301.248000   0.00000000         0.00
  CG2R63   CG2R62     CN7B     5   122.300000   359.824000   0.00000000         0.00
  CG2R62     CN7B     CN7B     5   109.300000   451.872000   0.00000000         0.00
  CG2R62     CN7B     ON6B     5   107.500000   619.232000   0.00000000         0.00
  CG2R62     CN7B      HN7     5   111.000000   401.664000   0.00000000         0.00
   NG2S0     CN7B     CN7B     5   110.800000   376.560000   0.00000000         0.00
   NG2S0     CN7B     ON6B     5   108.000000   711.280000   0.00000000         0.00
   CG2O6    NG2S0     CN7B     5   116.000000   317.984000   0.00000000         0.00
   CG321    NG2S0     CN7B     5   120.000000   334.720000   0.00000000         0.00
   NG2S0     CN7B      HN7     5   112.000000   401.664000   0.00000000         0.00
  CG2R61   NG2R61     CN7B     5   119.600000   376.560000   0.00000000         0.00
  CG2R53   NG2R52     CN7B     5   112.000000   836.800000   0.00000000         0.00
  CG2RC0   NG2R52     CN7B     5   112.900000   602.496000   0.00000000         0.00
  NG2R52     CN7B      HN7     5   106.000000   451.872000   0.00000000         0.00
  NG2R52     CN7B     CN7B     5   105.500000   753.120000   0.00000000         0.00
  NG2R52     CN7B     ON6B     5   102.000000   627.600000   0.00000000         0.00
   NG2P1     CN7B     ON6B     5   108.000000   711.280000   0.00000000         0.00
   NG2P1     CN7B     CN7B     5   109.300000   460.240000   0.00000000         0.00
   NG2P1     CN7B      HN7     5   107.700000   435.136000   0.00000000         0.00
  CG2R64    NG2P1     CN7B     5   118.100000   502.080000   0.00000000         0.00
  CG2R61    NG2P1     CN7B     5   120.000000   443.504000   0.00000000         0.00
  CG2R64   NG2R61     CN7B     5   115.400000   418.400000   0.00000000         0.00
  CG2R51   NG2R51     CN7B     5   126.900000   376.560000   0.00000000         0.00
  CG2R62     CN7B      CN8     5   109.300000   451.872000   0.00000000         0.00
  CG2R62     CN7B      ON6     5   107.500000   619.232000   0.00000000         0.00
  NG2R61     CN7B      ON6     5   108.000000   920.480000   0.00000000         0.00
  NG2R61     CN7B      CN8     5   113.700000   920.480000   0.00000000         0.00
  NG2R51     CN7B      ON6     5   108.000000   920.480000   0.00000000         0.00
  NG2R51     CN7B      CN8     5   113.700000   920.480000   0.00000000         0.00
     OSL       SL      OSL     5   109.470000  1087.840000   0.24500000     29288.00
     OSL       SL     CTL2     5    99.000000   669.440000   0.00000000         0.00
      SL     CTL2     HAL2     5   109.000000   410.032000   0.00000000         0.00
      SL     CTL2     CTL2     5   105.500000   418.400000   0.00000000         0.00
    CTL5      NTL      O2L     5   112.000000   669.440000   0.00000000         0.00
     O2L      NTL     CTL2     5   112.000000   669.440000   0.00000000         0.00
     OHL      NTL     CTL2     5   100.000000   577.392000   0.00000000         0.00
    CTL5      NTL      OHL     5   100.000000   577.392000   0.00000000         0.00
     NTL      OHL      HOL     5   101.500000   502.080000   0.00000000         0.00
    CRL1     CRL2     CRL1     5   113.500000   488.272800   0.25610000      9338.69
     OHL     CRL1     CRL1     5   110.100000   633.457600   0.00000000         0.00
       C      NHL     CTL2     5   120.000000   418.400000   0.00000000         0.00
       H      NHL     CTL2     5   117.000000   292.880000   0.00000000         0.00
     NHL     CTL2     HAL2     5   109.500000   430.952000   0.00000000         0.00
     NHL     CTL2     CTL2     5   113.500000   585.760000   0.00000000         0.00
     NTL     CTL2     CTL1     5   115.000000   566.513600   0.00000000         0.00
      HL     CTL2     CTL1     5   110.100000   279.742240   0.21790000     18853.10
    CTL1     CTL2       SL     5   105.500000   418.400000   0.00000000         0.00
   OC301     CTL2    CC301     5   111.500000   376.560000   0.00000000         0.00
    HAL2     CTL2    CC301     5   110.100000   221.752000   0.21790000     18853.10
    CTL2    CC301     CTL2     5   113.600000   488.272800   0.25610000      9338.69
   CC301     CTL2     CTL2     5   113.600000   488.272800   0.25610000      9338.69
     OHL     CRL1     CTL2     5   110.100000   633.457600   0.00000000         0.00
    CTL2     CTL2        S     5   114.500000   485.344000   0.00000000         0.00
    HAL2     CTL2        S     5   111.300000   385.764800   0.00000000         0.00
    CTL2        S       HS     5    95.000000   324.678400   0.00000000         0.00
     NTL     CTL2       CC     5   110.000000   365.681600   0.00000000         0.00
      HL     CTL2       CC     5   109.500000   276.144000   0.21630000     25104.00
    CTL2       CC       OC     5   118.000000   334.720000   0.23880000     41840.00
       C     CTL2    CC301     5   113.500000   488.272800   0.25610000      9338.69
    CTL2    CC301   CG2R61     5   107.500000   433.462400   0.00000000         0.00
   CC301   CG2R61   CG2R61     5   120.000000   383.254400   0.00000000         0.00
    CTL2      ON2        P     5   120.000000   167.360000   0.23300000     29288.00
     ON2     CTL2     HAL2     5   109.500000   502.080000   0.00000000         0.00
     ON2     CTL2     CTL1     5   109.000000   376.560000   0.00000000         0.00
     CT2        S       CL     5    95.000000   284.512000   0.00000000         0.00
    CTL2       CL        S     5   114.500000   485.344000   0.00000000         0.00
     OBL       CL        S     5   122.200000   627.600000   0.00000000         0.00
     NH1        C     CTL2     5   122.500000   669.440000   0.00000000         0.00
     CT2        S    CG321     5    95.000000   284.512000   0.00000000         0.00
       S    CG321     HGA2     5   111.300000   385.764800   0.00000000         0.00
       S    CG321    CG2D1     5   112.500000   485.344000   0.00000000         0.00
       S    CG321     CTL1     5   114.500000   485.344000   0.00000000         0.00
    HGA2    CG321     CTL1     5   110.100000   221.752000   0.21790000     18853.10
   CG321     CTL1     HAL1     5   110.100000   288.696000   0.21790000     18853.10
   CG321     CTL1      OSL     5   110.100000   633.457600   0.00000000         0.00
   CG321     CTL1     CTL2     5   113.500000   488.272800   0.25610000      9338.69
    CTL3     CTL1     CEL3     5   108.000000   435.136000   0.00000000         0.00
    CTL3     CTO1     CEL3     5   108.000000   435.136000   0.00000000         0.00
    CTL1     CEL3     CEL3     5   123.500000   401.664000   0.00000000         0.00
    CTO1     CEL3     CEL3     5   123.500000   401.664000   0.00000000         0.00
    CTL1     CTL1     CEL3     5   108.000000   435.136000   0.00000000         0.00
    CTL1     CTO1     CEL3     5   108.000000   435.136000   0.00000000         0.00
       C     CTL2     CTL2     5   108.000000   435.136000   0.00000000         0.00
    CTL2     CTL1     CTO1     5   113.500000   488.272800   0.25610000      9338.69
    CEL3     CEL3     CTL2     5   123.500000   401.664000   0.00000000         0.00
    CEL3     CTL2     CTL3     5   112.200000   267.776000   0.00000000         0.00
    CEL3     CTL2     CTL2     5   112.200000   267.776000   0.00000000         0.00
    CTL3     CTL2        C     5   108.000000   435.136000   0.00000000         0.00
     OHL     CTL1     CEL3     5   110.100000   633.457600   0.00000000         0.00
     OHL     CTO1     CEL3     5   110.100000   633.457600   0.00000000         0.00
     OHL     CTO1     CTL3     5   110.100000   633.457600   0.00000000         0.00
     OHL     CTO1     CTL1     5   110.100000   633.457600   0.00000000         0.00
       O        C     CTL2     5   121.000000   669.440000   0.00000000         0.00
       O        C     CTL3     5   121.000000   669.440000   0.00000000         0.00
     OSL     CTO1     CTL1     5   110.100000   633.457600   0.00000000         0.00
     OSL     CTO1     CEL3     5   110.100000   633.457600   0.00000000         0.00
      CL      OSL     CTO1     5   109.600000   334.720000   0.22651000     25104.00
    CTL1     CEL3     HEL1     5   116.000000   334.720000   0.00000000         0.00
    CTO1     CEL3     HEL1     5   116.000000   334.720000   0.00000000         0.00
    HAL1     CTL1     CEL3     5   109.500000   276.144000   0.21630000     25104.00
    HAL1     CTO1     CEL3     5   109.500000   276.144000   0.21630000     25104.00
    HAL1     CTO1     CTL3     5   110.100000   288.696000   0.21790000     18853.10
    HAL1     CTO1     CTL1     5   110.100000   288.696000   0.21790000     18853.10
    HAL1     CTL1     CTO1     5   110.100000   288.696000   0.21790000     18853.10
    HAL3     CTL3     CTO1     5   110.100000   279.742240   0.21790000     18853.10
    HEL1     CEL3     CEL3     5   119.500000   435.136000   0.00000000         0.00
    HEL1     CEL3     CTL2     5   116.000000   334.720000   0.00000000         0.00
    CEL3     CTL2     HAL2     5   111.500000   376.560000   0.00000000         0.00
    HAL2     CTL2        C     5   109.500000   276.144000   0.21630000     25104.00
    HAL3     CTL3        C     5   109.500000   276.144000   0.21630000     25104.00
     NHL     CTL1      OSL     5   122.500000   669.440000   0.00000000         0.00
       O        C      NHL     5   122.500000   669.440000   0.00000000         0.00
     HOL      OHL     CTO1     5   106.000000   481.160000   0.00000000         0.00
     OHL     CTO1     HAL1     5   108.890000   384.091200   0.00000000         0.00
     OSL     CTO1     HAL1     5   108.890000   384.091200   0.00000000         0.00
     NHL     CTL1     CTO1     5   113.500000   585.760000   0.00000000         0.00
     NHL        C     CTL2     5   116.500000   669.440000   0.00000000         0.00
     NHL     CTL1     CTL2     5   113.500000   585.760000   0.00000000         0.00
     NHL     CTL1     CTL3     5   113.500000   585.760000   0.00000000         0.00
     NHL     CTL1     CTL1     5   113.500000   585.760000   0.00000000         0.00
     NHL        C     CTL3     5   116.500000   669.440000   0.00000000         0.00
       H      NHL     CTL3     5   117.000000   292.880000   0.00000000         0.00
       H      NHL        C     5   123.000000   284.512000   0.00000000         0.00
       H      NHL     CTL1     5   117.000000   292.880000   0.00000000         0.00
    CTL3      NHL        C     5   120.000000   418.400000   0.00000000         0.00
    CTL1      NHL        C     5   120.000000   418.400000   0.00000000         0.00
     NHL     CTL3     HAL3     5   109.500000   430.952000   0.00000000         0.00
     NHL     CTL1     HAL1     5   108.000000   401.664000   0.00000000         0.00
     HOL      OHL     CTO2     5   106.000000   481.160000   0.00000000         0.00
     OHL     CTO2     HAL2     5   108.890000   384.091200   0.00000000         0.00
    HAL2     CTO2     CTL1     5   110.100000   221.752000   0.21790000     18853.10
    HAL1     CTL1     CTO2     5   110.100000   288.696000   0.21790000     18853.10
     NHL     CTL1     CTO2     5   113.500000   585.760000   0.00000000         0.00
    CTO2     CTL1     CTO1     5   113.500000   488.272800   0.25610000      9338.69
    HAL2     CTO2     HAL2     5   109.000000   297.064000   0.18020000      4518.72
     OHL     CTO2     CTL1     5   110.100000   633.457600   0.00000000         0.00
    CEL3     CEL3     CTL3     5   123.500000   401.664000   0.00000000         0.00
    CTL3     CEL3     CTL2     5   123.500000   401.664000   0.00000000         0.00
    CEL3     CTL3     HAL3     5   111.500000   351.456000   0.00000000         0.00
     NHL        C     CTL1     5   116.500000   669.440000   0.00000000         0.00
       O        C     CTL1     5   121.000000   669.440000   0.00000000         0.00
       C     CTL1     CEL3     5   108.000000   435.136000   0.00000000         0.00
       C     CTL1     HAL1     5   109.500000   418.400000   0.00000000         0.00
       C     CTL1      OH1     5   110.100000   633.457600   0.00000000         0.00
     OH1     CTL1     CEL3     5   110.100000   633.457600   0.00000000         0.00
     CN3     CN1A      NN1     5   113.000000   711.280000   0.24600000     66944.00
     CN3     CN1A      ON1     5   118.500000   711.280000   0.24300000     16736.00
     NN1     CN1A      ON1     5   128.500000   711.280000   0.21700000     16736.00
     NN2     CN3C      HN6     5   119.000000   351.456000   0.00000000         0.00
     HN6     CN3C      CN3     5   119.000000   351.456000   0.00000000         0.00
     HN6      CN3      CN8     5   116.000000   251.040000   0.00000000         0.00
    CN3C      CN3      HN6     5   119.000000   351.456000   0.00000000         0.00
    CN1A      CN3     CN3C     5   107.800000    41.840000   0.00000000         0.00
    CN1A      CN3      CN8     5   124.200000  1046.000000   0.00000000         0.00
    CN3A      CN3     CN1A     5   110.200000   334.720000   0.00000000         0.00
    CN3B      CN3     CN1A     5   131.800000    83.680000   0.00000000         0.00
     CN3     CN3A      CN3     5   118.000000   418.400000   0.00000000         0.00
    CN3A      CN3     CN3B     5   118.000000   334.720000   0.00000000         0.00
     CN3      CN3      CN8     5   108.500000   447.688000   0.00000000         0.00
    CN3B      CN3      CN8     5   108.500000   447.688000   0.00000000         0.00
    CN3C      CN3      CN8     5   128.000000   364.008000   0.00000000         0.00
    CN3B      CN3     HN3B     5   122.000000   251.040000   0.00000000         0.00
    CN3A      CN3     HN3B     5   119.000000   251.040000   0.00000000         0.00
     CN3     CN3C      HN3     5   119.000000   351.456000   0.00000000         0.00
    CN3C      CN3      HN3     5   116.000000   351.456000   0.00000000         0.00
     CN3     CN3A     HN3B     5   121.000000   669.440000   0.00000000         0.00
     CN3     CN3B     HN3B     5   120.500000   669.440000   0.00000000         0.00
     CN3     CN3B      NN2     5   122.000000  1004.160000   0.00000000         0.00
     CN3     CN3C      NN2     5   122.000000   502.080000   0.00000000         0.00
     CN8      CN3      HN3     5   116.000000   251.040000   0.00000000         0.00
    HN3B     CN3B      NN2     5   117.500000   669.440000   0.00000000         0.00
     HN3     CN3C      NN2     5   119.000000   351.456000   0.00000000         0.00
     CN3      CN8      CN3     5   108.000000  1046.000000   0.00000000         0.00
     CN3      CN8      HN8     5   110.100000   460.240000   0.00000000         0.00
    CN1A      NN1      HN1     5   120.000000   292.880000   0.00000000         0.00
    CN3B      NN2     CN3B     5   120.000000   251.040000   0.00000000         0.00
    CN3C      NN2     CN3C     5   114.000000   167.360000   0.00000000         0.00
    CN3B      NN2     CN7B     5   121.700000   585.760000   0.00000000         0.00
    CN3C      NN2     CN7B     5   121.700000   585.760000   0.00000000         0.00
    CN3B      NN2      HN2     5   117.400000   267.776000   0.00000000         0.00
    CN3C      NN2      HN2     5   123.000000   326.352000   0.00000000         0.00
     CN7     CN7B      ON2     5   109.700000   962.320000   0.00000000         0.00
      OC       CD       OC     5   120.000000   334.720000   0.22412700     83261.60
      C3       C3       C3     5   111.000000   647.264800   0.25610000      6694.40
      C3       C3      HB2     5   117.100000   192.464000   0.21790000     18853.10
     HB2       C3      HB2     5   117.000000   192.464000   0.18020000      4518.72
      CC      CT1       CC     5   108.000000   435.136000   0.00000000         0.00
     HA1      CT1       CC     5   109.500000   276.144000   0.21630000     25104.00
     CT1     CT2A      CT1     5   113.500000   488.272800   0.25610000      9338.69
     HA1      CT1     CT2A     5   110.100000   288.696000   0.21790000     18853.10
      CC      CT1       CD     5   108.000000   435.136000   0.00000000         0.00


[ dihedraltypes ]
;      i        j        k        l  func         phi0         kphi  mult
     CT1     CT2A      CT1      NH1     9   180.000000     3.681920     1
     CT1     CT2A      CT1      NH1     9   180.000000     0.000000     2
     CT1     CT2A      CT1      NH1     9     0.000000     7.949600     3
     CT1     CT2A      CT1      NH3     9     0.000000     0.794960     3
     CT1     CT2A      CT2      HA2     9     0.000000     0.794960     3
     CT1     CT2A      CT2       CD     9     0.000000     0.794960     3
     CT1     CT2A       CC       OC     9     0.000000     3.514560     1
     CT1     CT2A       CC       OC     9   180.000000     4.100320     2
     CT1     CT2A       CC       OC     9     0.000000     6.108640     3
     CT1     CT2A     CPH1      NR3     9   180.000000     2.217520     1
     CT1     CT2A     CPH1      NR3     9   180.000000     1.757280     2
     CT1     CT2A     CPH1      NR3     9   180.000000     1.255200     3
     CT1        C        N      CP1     9   180.000000    11.506000     2
     CT1        C        N      CP1     9     0.000000     1.255200     4
     CT1        C        N      CP3     9   180.000000    11.506000     2
     CT1        C        N      CP3     9     0.000000     1.255200     4
     CT1        C        N     CPD1     9   180.000000    11.506000     2
     CT1        C        N     CPD1     9     0.000000     1.255200     4
     CT1        C      NH1      CT1     9     0.000000     6.694400     1
     CT1        C      NH1      CT1     9   180.000000    10.460000     2
     CT1        C      NH1       CT     9     0.000000     6.694400     1
     CT1        C      NH1       CT     9   180.000000    10.460000     2
     CT1        C      NH1     CTD1     9     0.000000     6.694400     1
     CT1        C      NH1     CTD1     9   180.000000    10.460000     2
     CT1        C      OSL     CTL2     9   180.000000     8.577200     2
     CT1        C    NG2S0   CG3C51     9   180.000000    11.506000     2
     CT1        C    NG2S0   CG3C51     9     0.000000     1.255200     4
     CT1        C    NG2S0   CG3C52     9   180.000000    11.506000     2
     CT1        C    NG2S0   CG3C52     9     0.000000     1.255200     4
     CT1        C    NG2S0    CG321     9   180.000000    10.878400     2
     CT1        C    NG2S0    CG311     9   180.000000    10.878400     2
     CT1        C    NG2S0    CG331     9   180.000000    10.878400     2
     CT1        C    NG2S0   CG3C50     9   180.000000    11.506000     2
     CT1        C    NG2S0   CG3C50     9     0.000000     1.255200     4
     CT1        C    NG2S1     HGP1     9   180.000000    10.460000     2
     CT1        C    NG2S1    CG311     9     0.000000     6.694400     1
     CT1        C    NG2S1    CG311     9   180.000000    10.460000     2
     CT1        C    NG2S1    CG331     9     0.000000     6.694400     1
     CT1        C    NG2S1    CG331     9   180.000000    10.460000     2
     CT1        C    NG2S1    CG321     9     0.000000     6.694400     1
     CT1        C    NG2S1    CG321     9   180.000000    10.460000     2
     CT1        C    NG2S1   CG3C51     9     0.000000     6.694400     1
     CT1        C    NG2S1   CG3C51     9   180.000000    10.460000     2
     CT1        C    NG2S1   CG2D1O     9     0.000000     6.586034     1
     CT1        C    NG2S1   CG2D1O     9   180.000000     0.217568     2
     CT1        C    NG2D1   CG2DC1     9   180.000000     4.847582     1
     CT1        C    NG2D1   CG2DC1     9     0.000000     6.292318     2
     CT1      CT1      NH1        C     9     0.000000     7.531200     1
     CT1      CT1      CT3      HA3     9     0.000000     0.836800     3
     CT1      CT1      CT2      HA2     9     0.000000     0.836800     3
     CT1      CT1      CT2      CT3     9   180.000000     1.589920     1
     CT1      CT1      CT2      CT3     9   180.000000     0.543920     2
     CT1      CT1      CT2      CT3     9   180.000000     1.213360     3
     CT1      CT1      OH1        H     9     0.000000     0.753120     1
     CT1      CT1      OH1        H     9     0.000000     0.251040     2
     CT1      CT1      OH1        H     9     0.000000     1.046000     3
     CT1      CT1      ON2        P     9   180.000000     1.673600     1
     CT1      CT1      ON2        P     9     0.000000     1.255200     2
     CT1      CT1      ON2        P     9     0.000000     0.418400     3
     CT1      CT1        C    NG2D1     9     0.000000     0.000000     1
     CT1      CT1        C    NG2S0     9     0.000000     0.000000     1
     CT1      CT1        C    NG2S1     9     0.000000     0.000000     1
     CT1      NH1        C      CP1     9     0.000000     6.694400     1
     CT1      NH1        C      CP1     9   180.000000    10.460000     2
     CT1      NH1        C     CTD1     9     0.000000     6.694400     1
     CT1      NH1        C     CTD1     9   180.000000    10.460000     2
     CT1      NH1        C     CPD1     9     0.000000     6.694400     1
     CT1      NH1        C     CPD1     9   180.000000    10.460000     2
     CT1      NH1        C     CTL2     9     0.000000     0.000000     1
     CT1      NH1    CG2O1    SG2D1     9     0.000000     6.552981     1
     CT1      NH1    CG2O1    SG2D1     9   180.000000    12.952827     2
     CT1      CT2      CT2      HA2     9     0.000000     0.794960     3
     CT1      CT2      CT2      CT2     9   180.000000     2.635920     1
     CT1      CT2      CT2      CT2     9     0.000000     0.041840     2
     CT1      CT2      CT2      CT2     9     0.000000     0.627600     3
     CT1      CT2      CT2        S     9   180.000000     0.585760     1
     CT1      CT2      CT2        S     9     0.000000     2.259360     2
     CT1      CT2      CT2        S     9     0.000000     2.886960     3
     CT1      CT2      CT3      HA3     9     0.000000     0.669440     3
     CT1      CT2      CT1      HA1     9     0.000000     0.836800     3
     CT1      CT2      CT1      CT3     9     0.000000     0.209200     1
     CT1      CT2      CT1      CT3     9   180.000000     0.418400     2
     CT1      CT2      CT1      CT3     9   180.000000     0.041840     3
     CT1      CT2      CT1      NH1     9   180.000000     2.008320     1
     CT1      CT2      CT1      NH1     9   180.000000     1.757280     2
     CT1      CT2      CT1      NH1     9     0.000000     2.719600     3
     CT1      CT2       CC      NH2     9   180.000000     2.594080     1
     CT1      CT2       CC      NH2     9   180.000000     2.761440     2
     CT1      CT2       CC      NH2     9   180.000000     3.012480     3
     CT1      CT2       CC        O     9   180.000000     1.757280     1
     CT1      CT2       CC        O     9   180.000000     0.627600     2
     CT1      CT2       CC        O     9   180.000000     3.974800     3
     CT1      CT2        S       HS     9     0.000000     0.836800     1
     CT1      CT2        S       HS     9     0.000000     2.719600     2
     CT1      CT2        S       HS     9     0.000000     0.920480     3
     CT1      CT2        S      CN8     9   180.000000     1.004160     1
     CT1      CT2        S      CN8     9     0.000000     1.548080     3
     CT1      CT2        S   CG2R64     9   180.000000     0.627600     3
     CT1      CT2        S    CG321     9   180.000000     1.004160     1
     CT1      CT2        S    CG321     9     0.000000     1.548080     3
     CT1      CT2     CPH1      NR1     9     0.000000     6.234160     1
     CT1      CT2     CPH1      NR1     9   180.000000     0.376560     2
     CT1      CT2     CPH1      NR1     9   180.000000     3.305360     3
     CT1      CT2     CPH1      NR2     9     0.000000     4.560560     1
     CT1      CT2     CPH1      NR2     9     0.000000     0.376560     2
     CT1      CT2     CPH1      NR2     9   180.000000     2.803280     3
     CT1      CT2      OH1        H     9     0.000000     0.083680     1
     CT1      CT2      OH1        H     9     0.000000     2.343040     2
     CT1      CT2      OH1        H     9     0.000000     2.050160     3
     CT1      CT2      ON2        P     9   180.000000     2.510400     1
     CT1      CT2      ON2        P     9     0.000000     2.719600     2
     CT1      CT2      ON2        P     9     0.000000     0.209200     3
     CT1      CT2        C      NH1     9   180.000000     0.209200     6
     CT1      CT2        C        O     9   180.000000     0.209200     6
     CT1      CT2       CT      NH1     9   180.000000     2.008320     1
     CT1      CT2       CT      NH1     9   180.000000     1.757280     2
     CT1      CT2       CT      NH1     9     0.000000     2.719600     3
     CT1      CT2   CG2R51   NG2R50     9     0.000000     4.560560     1
     CT1      CT2   CG2R51   NG2R50     9     0.000000     0.376560     2
     CT1      CT2   CG2R51   NG2R50     9   180.000000     2.803280     3
     CT1      CT2      CE1      HE1     9     0.000000     0.502080     3
     CT1      CT2      CE1      CE1     9   180.000000     2.092000     1
     CT1      CT2     CTD1      NH1     9   180.000000     2.008320     1
     CT1      CT2     CTD1      NH1     9   180.000000     1.757280     2
     CT1      CT2     CTD1      NH1     9     0.000000     2.719600     3
     CT1      ON2        P      ON3     9     0.000000     0.418400     3
     CT1      ON2        P      ON4     9     0.000000     3.974800     2
     CT1      ON2        P      ON4     9     0.000000     2.092000     3
     CT1    CC321    CC2O1    OC2D1     9   180.000000     0.209200     6
     CT1    CC321    CC2O1    NC2D1     9   180.000000     0.209200     6
     CT1    OC301   CC311D     HCA1     9     0.000000     1.188256     3
     CT1    OC301   CC311D   OC3C61     9   180.000000     1.799120     1
     CT1    OC301   CC311D   OC3C61     9     0.000000     0.209200     2
     CT1    OC301   CC311D   OC3C61     9   180.000000     2.343040     3
     CT1    OC301   CC3162     HCA1     9     0.000000     1.188256     3
     CT1    OC301   CC3162   OC3C61     9   180.000000     1.799120     1
     CT1    OC301   CC3162   OC3C61     9     0.000000     0.209200     2
     CT1    OC301   CC3162   OC3C61     9   180.000000     2.343040     3
     CT1       CS       SS       ZN     9     0.000000     0.000000     3
     CT1      CT3   CG2R51   NG2R50     9   180.000000     2.217520     1
     CT1      CT3   CG2R51   NG2R50     9   180.000000     1.757280     2
     CT1      CT3   CG2R51   NG2R50     9   180.000000     1.255200     3
     CT1    CG2D1    CG2D2     HGA5     9   180.000000    21.756800     2
     CT1   CG2R51   CG2R51   CG2R51     9   180.000000    17.991200     2
     CT1   CG2R51   CG2R51    HGR51     9   180.000000     4.184000     2
     CT1   CG2R51   CG2R51    HGR52     9   180.000000     4.184000     2
     CT1   CG2R51   SG2R50   CG2R51     9   180.000000    10.634891     2
     CT1   CG2R61   CG2R61   CG2R61     9   180.000000    12.970400     2
     CT1   CG2R61   CG2R61   CG2R66     9   180.000000    12.970400     2
     CT1   CG2R61   CG2R61    HGR61     9   180.000000    10.041600     2
     CT1   CG2R61   CG2R61    HGR62     9   180.000000    10.041600     2
     CT1   CG2R61   CG2R66   CG2R61     9   180.000000    12.970400     2
     CT1   CG2R61   CG2R66     FGR1     9   180.000000    18.828000     2
     CT1    CG301    CG2O3    OG2D2     9   180.000000     0.209200     6
     CT1    CG301    CG311    CG331     9     0.000000     0.836800     3
     CT1    CG301    CG311     HGA1     9     0.000000     0.815880     3
     CT1    CG301    CG311    OG311     9     0.000000     0.585760     3
     CT1    CG301    CG321    CG331     9     0.000000     0.836800     3
     CT1    CG301    CG321     HGA2     9     0.000000     0.815880     3
     CT1    CG301    CG331     HGA3     9     0.000000     0.669440     3
     CT1    CG301    OG311     HGP1     9     0.000000     4.727920     1
     CT1    CG301    OG311     HGP1     9     0.000000     0.585760     2
     CT1    CG301    OG311     HGP1     9     0.000000     1.004160     3
     CT1    CG311    CG2O1    NG2S2     9     0.000000     0.000000     1
     CT1    CG311    CG2O1    OG2D1     9     0.000000     5.857600     1
     CT1    CG311    CG2O3    OG2D2     9   180.000000     0.209200     6
     CT1    CG311    CG2O4    HGR52     9   180.000000     0.000000     3
     CT1    CG311    CG2O4    OG2D1     9   180.000000     4.393200     1
     CT1    CG311    CG2O4    OG2D1     9   180.000000     1.673600     2
     CT1    CG311    CG2O4    OG2D1     9   180.000000     2.510400     3
     CT1    CG311    CG2O4    OG2D1     9   180.000000     0.418400     4
     CT1    CG311   CG2R51   CG2R51     9     0.000000     0.836800     1
     CT1    CG311   CG2R51   CG2R51     9     0.000000     1.129680     2
     CT1    CG311   CG2R51   CG2R51     9     0.000000     0.000000     3
     CT1    CG311   CG2R51   CG2RC0     9   180.000000     0.376560     2
     CT1    CG311   CG2R51   CG2RC0     9     0.000000     2.384880     3
     CT1    CG311   CG2R61   CG2R61     9   180.000000     0.962320     2
     CT1    CG311    CG311    CG321     9   180.000000     2.092000     4
     CT1    CG311    CG311    CG331     9   180.000000     2.092000     4
     CT1    CG311    CG311     HGA1     9     0.000000     0.815880     3
     CT1    CG311    CG311    OG311     9     0.000000     0.585760     3
     CT1    CG311    CG321    CG2O1     9     0.000000     0.815880     3
     CT1    CG311    CG321    CG2O3     9     0.000000     0.836800     3
     CT1    CG311    CG321    CG321     9     0.000000     0.836800     3
     CT1    CG311    CG321    CG331     9     0.000000     0.836800     3
     CT1    CG311    CG321     HGA2     9     0.000000     0.815880     3
     CT1    CG311    CG321    OG311     9   180.000000     0.836800     3
     CT1    CG311    CG331     HGA3     9     0.000000     0.836800     3
     CT1    CG311    OG301    CG331     9     0.000000     1.673600     1
     CT1    CG311    OG301    CG331     9     0.000000     2.050160     3
     CT1    CG311    OG303    SG3O1     9     0.000000     0.000000     3
     CT1    CG311    OG311     HGP1     9     0.000000     5.564720     1
     CT1    CG311    OG311     HGP1     9     0.000000     0.753120     2
     CT1    CG311    OG311     HGP1     9     0.000000     1.924640     3
     CT1    CG311    SG311    CG331     9   180.000000     1.004160     1
     CT1    CG311    SG311    CG331     9     0.000000     1.548080     3
     CT1    CG321    CG2D1    CG2D2     9   180.000000     2.092000     1
     CT1    CG321    CG2D1    CG2D2     9   180.000000     5.439200     3
     CT1    CG321    CG2D1     HGA4     9     0.000000     0.000000     3
     CT1    CG321   CG2DC1   CG2DC1     9     0.000000     2.092000     2
     CT1    CG321   CG2DC1   CG2DC1     9     0.000000     1.255200     3
     CT1    CG321   CG2DC1     HGA4     9     0.000000     0.502080     3
     CT1    CG321    CG2O1    NG2S1     9     0.000000     0.000000     1
     CT1    CG321    CG2O1    OG2D1     9   180.000000     0.209200     6
     CT1    CG321    CG2O2    OG2D1     9   180.000000     0.000000     6
     CT1    CG321    CG2O2    OG302     9   180.000000     2.217520     2
     CT1    CG321    CG2O2    OG303     9   180.000000     2.217520     2
     CT1    CG321    CG2O3    OG2D2     9   180.000000     0.209200     6
     CT1    CG321    CG2O4    HGR52     9   180.000000     0.000000     3
     CT1    CG321    CG2O4    OG2D1     9   180.000000     4.393200     1
     CT1    CG321    CG2O4    OG2D1     9   180.000000     1.673600     2
     CT1    CG321    CG2O4    OG2D1     9   180.000000     2.510400     3
     CT1    CG321    CG2O4    OG2D1     9   180.000000     0.418400     4
     CT1    CG321    CG2O5   CG2R61     9     0.000000     1.673600     1
     CT1    CG321    CG2O5   CG2R61     9   180.000000     0.711280     2
     CT1    CG321    CG2O5   CG2R61     9   180.000000     0.543920     3
     CT1    CG321    CG2O5   CG2R61     9   180.000000     0.418400     6
     CT1    CG321    CG2O5    OG2D3     9   180.000000     3.138000     1
     CT1    CG321    CG2O5    OG2D3     9   180.000000     0.753120     2
     CT1    CG321    CG2O5    OG2D3     9   180.000000     0.271960     3
     CT1    CG321    CG2O5    OG2D3     9     0.000000     0.125520     6
     CT1    CG321   CG2R51   CG2R51     9     0.000000     0.836800     1
     CT1    CG321   CG2R51   CG2R51     9     0.000000     1.129680     2
     CT1    CG321   CG2R51   CG2R51     9     0.000000     0.000000     3
     CT1    CG321   CG2R51   CG2RC0     9   180.000000     0.376560     2
     CT1    CG321   CG2R51   CG2RC0     9     0.000000     2.384880     3
     CT1    CG321   CG2R51   NG2R50     9     0.000000     0.794960     3
     CT1    CG321   CG2R51   NG2R51     9     0.000000     0.794960     3
     CT1    CG321   CG2R51   NG2R52     9     0.000000     0.794960     3
     CT1    CG321   CG2R61   CG2R61     9   180.000000     0.962320     2
     CT1    CG321   CG2R61   CG2R66     9   180.000000     0.962320     2
     CT1    CG321   CG2R61   NG2R60     9   180.000000     0.962320     2
     CT1    CG321    CG301    CG321     9     0.000000     0.836800     3
     CT1    CG321    CG311    CG2O1     9     0.000000     0.836800     3
     CT1    CG321    CG311    CG2O2     9     0.000000     0.836800     3
     CT1    CG321    CG311    CG2O3     9     0.000000     0.836800     3
     CT1    CG321    CG311    CG2O4     9     0.000000     0.836800     3
     CT1    CG321    CG311    CG321     9     0.000000     0.836800     3
     CT1    CG321    CG311    CG324     9     0.000000     0.815880     3
     CT1    CG321    CG311    CG331     9     0.000000     0.836800     3
     CT1    CG321    CG311     HGA1     9     0.000000     0.815880     3
     CT1    CG321    CG311    OG311     9   180.000000     8.368000     3
     CT1    CG321    CG311    OG311     9     0.000000     1.673600     5
     CT1    CG321    CG311    OG311     9     0.000000     3.347200     6
     CT1    CG321    CG311    CG302     9     0.000000     0.836800     3
     CT1    CG321    CG321    CG2O1     9     0.000000     0.815880     3
     CT1    CG321    CG321    CG2O2     9     0.000000     0.815880     3
     CT1    CG321    CG321    CG2O5     9   180.000000     0.878640     1
     CT1    CG321    CG321    CG2O5     9     0.000000     1.631760     2
     CT1    CG321    CG321    CG2O5     9   180.000000     1.464400     3
     CT1    CG321    CG321    CG2O5     9     0.000000     0.460240     4
     CT1    CG321    CG321    CG2O5     9   180.000000     0.376560     6
     CT1    CG321    CG321   CG2R61     9     0.000000     0.167360     3
     CT1    CG321    CG321    CG311     9     0.000000     0.815880     3
     CT1    CG321    CG321    CG314     9     0.000000     0.815880     3
     CT1    CG321    CG321    CG321     9     0.000000     2.092000     3
     CT1    CG321    CG321    CG321     9   180.000000     2.092000     6
     CT1    CG321    CG321    CG324     9     0.000000     0.815880     3
     CT1    CG321    CG321    CG331     9     0.000000     0.629692     2
     CT1    CG321    CG321    CG331     9   180.000000     0.340159     3
     CT1    CG321    CG321    CG331     9     0.000000     0.452709     4
     CT1    CG321    CG321    CG331     9     0.000000     0.853118     5
     CT1    CG321    CG321     HGA2     9     0.000000     0.815880     3
     CT1    CG321    CG321    OG301     9   180.000000     0.669440     1
     CT1    CG321    CG321    OG301     9     0.000000     1.631760     2
     CT1    CG321    CG321    OG311     9     0.000000     0.815880     3
     CT1    CG321    CG321    SG311     9     0.000000     0.815880     3
     CT1    CG321    CG321    SG3O2     9   180.000000     3.932960     1
     CT1    CG321    CG321    SG3O2     9     0.000000     1.589920     2
     CT1    CG321    CG321    SG3O2     9     0.000000     0.460240     3
     CT1    CG321    CG321    SG3O3     9   180.000000     3.932960     1
     CT1    CG321    CG321    SG3O3     9     0.000000     1.589920     2
     CT1    CG321    CG321    SG3O3     9     0.000000     0.460240     3
     CT1    CG321    CG324     HGA2     9     0.000000     0.815880     3
     CT1    CG321    CG324    NG2P1     9     0.000000     0.815880     3
     CT1    CG321    CG324    NG3P3     9     0.000000     0.815880     3
     CT1    CG321    CG331     HGA3     9     0.000000     0.669440     3
     CT1    CG321   CG3C51   CG3C52     9   180.000000     2.092000     4
     CT1    CG321   CG3C51     HGA1     9     0.000000     0.815880     3
     CT1    CG321   NG2R51   CG2R51     9     0.000000     1.610840     1
     CT1    CG321   NG2R51   CG2R51     9     0.000000     1.757280     2
     CT1    CG321   NG2R51   CG2R51     9     0.000000     0.334720     3
     CT1    CG321   NG2R51   CG2R51     9     0.000000     0.230120     4
     CT1    CG321   NG2R51   CG2R53     9     0.000000     1.610840     1
     CT1    CG321   NG2R51   CG2R53     9     0.000000     1.757280     2
     CT1    CG321   NG2R51   CG2R53     9     0.000000     0.334720     3
     CT1    CG321   NG2R51   CG2R53     9     0.000000     0.230120     4
     CT1    CG321   NG2R51   NG2R50     9   180.000000     1.610840     1
     CT1    CG321   NG2R51   NG2R50     9     0.000000     1.757280     2
     CT1    CG321   NG2R51   NG2R50     9   180.000000     0.334720     3
     CT1    CG321   NG2R51   NG2R50     9     0.000000     0.230120     4
     CT1    CG321    NG2S1    CG2O1     9     0.000000     7.531200     1
     CT1    CG321    NG2S1     HGP1     9     0.000000     0.000000     1
     CT1    CG321    OG302    CG2O2     9     0.000000     0.000000     3
     CT1    CG321    OG302    CG2O6     9   180.000000     0.418400     1
     CT1    CG321    OG302    CG2O6     9     0.000000     2.510400     2
     CT1    CG321    OG302    CG2O6     9   180.000000     0.418400     3
     CT1    CG321    OG303      PG0     9   180.000000     2.510400     1
     CT1    CG321    OG303      PG0     9     0.000000     0.209200     3
     CT1    CG321    OG303      PG1     9   180.000000     2.510400     1
     CT1    CG321    OG303      PG1     9     0.000000     2.719600     2
     CT1    CG321    OG303      PG1     9     0.000000     0.209200     3
     CT1    CG321    OG303    SG3O1     9     0.000000     0.000000     3
     CT1    CG321    OG303    SG3O2     9     0.000000     0.000000     3
     CT1    CG321    SG301    SG301     9     0.000000     1.297040     3
     CT1    CG321    SG301    SG311     9     0.000000     1.297040     3
     CT1    CG321    SG301    OG301     9   180.000000     4.132537     1
     CT1    CG321    SG301    OG301     9     0.000000     0.279073     2
     CT1    CG321    SG301    OG301     9     0.000000     1.037214     3
     CT1    CG321    SG301    OG311     9   180.000000     3.047626     1
     CT1    CG321    SG301    OG311     9     0.000000     1.372352     3
     CT1    CG321    SG301    OG312     9   180.000000     6.059687     1
     CT1    CG321    SG301    OG312     9     0.000000     2.558934     2
     CT1    CG321    SG301    OG312     9     0.000000     5.165148     3
     CT1    CG321    SG301    SG3O1     9   180.000000     3.381090     1
     CT1    CG321    SG301    SG3O1     9     0.000000     2.079448     2
     CT1    CG321    SG311    CG301     9   180.000000     1.004160     1
     CT1    CG321    SG311    CG301     9     0.000000     1.548080     3
     CT1    CG321    SG311    CG311     9   180.000000     1.004160     1
     CT1    CG321    SG311    CG311     9     0.000000     1.548080     3
     CT1    CG321    SG311    CG321     9   180.000000     1.004160     1
     CT1    CG321    SG311    CG321     9     0.000000     1.548080     3
     CT1    CG321    SG311    CG331     9   180.000000     1.004160     1
     CT1    CG321    SG311    CG331     9     0.000000     1.548080     3
     CT1    CG321    SG311    CG1N1     9   180.000000     2.197437     1
     CT1    CG321    SG311    CG1N1     9   180.000000     0.041422     3
     CT1    CG321    SG311    CG2O2     9   180.000000     0.867762     1
     CT1    CG321    SG311    CG2O2     9     0.000000     2.129238     2
     CT1    CG321    SG311    CG2O6     9   180.000000     0.494967     1
     CT1    CG321    SG311    CG2O6     9     0.000000     3.219170     2
     CT1    CG321    SG311    CG2O6     9   180.000000     3.876476     3
     CT1    CG321    SG311    CG314     9   180.000000     1.004160     1
     CT1    CG321    SG311    CG314     9     0.000000     1.548080     3
     CT1    CG321    SG311    NG2D1     9   180.000000     0.210037     1
     CT1    CG321    SG311    NG2D1     9     0.000000     2.845538     2
     CT1    CG321    SG3O1    OG2P1     9     0.000000     0.962320     3
     CT1    CG321    SG3O2    OG2P1     9     0.000000     0.753120     3
     CT1    CG321    CG312     FGA2     9   180.000000     3.196576     1
     CT1    CG321    CG312     FGA2     9     0.000000     1.356871     3
     CT1    CG321    CG312     HGA7     9     0.000000     0.753120     3
     CT1    CG321    CG322    CG2O3     9     0.000000     3.980658     3
     CT1    CG321    CG322     FGA1     9   180.000000     1.442643     3
     CT1    CG321    CG322     HGA6     9   180.000000     0.076567     3
     CT1    CG324    NG2P1    CG2N1     9   180.000000     0.000000     6
     CT1    CG324    NG2P1     HGP2     9   180.000000     0.000000     6
     CT1    CG324    NG3P3     HGP2     9     0.000000     0.418400     3
     CT1   CG3C51   CG3C52     HGA2     9     0.000000     0.794960     3
     CT1   CG3C51   CG3C52   CG2RC0     9     0.000000     1.764393     3
     CT1   CG3C51   CG3C52   CG2RC0     9   180.000000     2.474836     4
     CT1   CG3C51   CG3C52   CG2RC0     9   180.000000     0.962738     6
     CT1    CG322    CG331     HGA3     9     0.000000     0.774040     3
     CT1     CTD1      NH1        C     9     0.000000     7.531200     1
     NH2      CT1        C        O     9     0.000000     0.000000     1
     NH2      CT1        C      NH1     9     0.000000     0.000000     1
     NH2      CT1     CT2A      HA2     9     0.000000     0.836800     3
     NH2      CT1     CT2A      CT2     9     0.000000     0.836800     3
     NH2      CT1     CT2A     CPH1     9     0.000000     0.836800     3
     NH2      CT1       CS      HA2     9     0.000000     0.836800     3
     NH2      CT1       CS       SS     9     0.000000     0.836800     3
     NH2      CT1      CT2       OC     9     0.000000     0.836800     3
     NH2      CT2        C        O     9     0.000000     0.000000     1
     NH2      CT2        C      NH1     9     0.000000     0.000000     1
     NH2      CT2        C        N     9     0.000000     0.000000     1
     NH2       CC      CP1      CP2     9     0.000000     1.673600     1
     NH2       CC      CP1      CP2     9     0.000000     2.510400     2
     NH2       CC      CP1      HB1     9   180.000000     1.673600     1
     NH2       CC      CP1      HB1     9     0.000000     2.510400     2
     NH2       CC      CP1        N     9     0.000000     1.255200     1
     NH2       CC      CP1        N     9     0.000000    -1.255200     4
     NH2       CC      CP1       HB     9   180.000000     1.673600     1
     NH2       CC      CP1       HB     9     0.000000     2.510400     2
     NH2       CC      CT2      HA2     9   180.000000     0.000000     3
     NH2       CC      CT2       HA     9   180.000000     0.000000     3
     NH2       CC     CPD1      CP2     9     0.000000     1.673600     1
     NH2       CC     CPD1      CP2     9     0.000000     2.510400     2
     NH2       CC     CPD1      HB1     9   180.000000     1.673600     1
     NH2       CC     CPD1      HB1     9     0.000000     2.510400     2
     NH2       CC     CPD1        N     9     0.000000     1.255200     1
     NH2       CC     CPD1        N     9     0.000000    -1.255200     4
       H      NH2      CT1      CT1     9     0.000000     0.000000     1
       H      NH2      CT1        C     9     0.000000     0.000000     1
       H      NH2      CT1       CC     9     0.000000     0.000000     1
       H      NH2      CT1       CD     9     0.000000     0.000000     1
       H      NH2      CT1      HB1     9     0.000000     0.460240     3
       H      NH2      CT1      CT2     9     0.000000     0.460240     3
       H      NH2      CT1     CT2A     9     0.000000     0.460240     3
       H      NH2      CT1      CT3     9     0.000000     0.460240     3
       H      NH2      CT1       CS     9     0.000000     0.460240     3
       H      NH2      CT2        C     9     0.000000     0.000000     1
       H      NH2      CT2       CD     9     0.000000     0.000000     1
       H      NH2      CT2      HB2     9     0.000000     0.460240     3
       H      NH2       CC      CT1     9   180.000000     5.857600     2
       H      NH2       CC      CT2     9   180.000000     5.857600     2
       H      NH2       CC      CT3     9   180.000000     5.857600     2
       H      NH2       CC      CP1     9   180.000000    10.460000     2
       H      NH2       CC       CT     9   180.000000     5.857600     2
       H      NH2       CC     CTD1     9   180.000000     5.857600     2
       H      NH2       CC     CPD1     9   180.000000    10.460000     2
       H      NH2       CT      CT2     9     0.000000     0.460240     3
       H       NY       CA       CY     9   180.000000     0.209200     2
       H       NY      CPT       CA     9   180.000000     0.836800     2
       H       NY      CPT      CAI     9   180.000000     0.836800     2
       H       NY      CPT      CPT     9   180.000000     3.556400     2
       H      NH1        C      CP1     9   180.000000    10.460000     2
       H      NH1        C      CT1     9   180.000000    10.460000     2
       H      NH1        C      CT2     9   180.000000    10.460000     2
       H      NH1        C      CT3     9   180.000000    10.460000     2
       H      NH1        C       CT     9   180.000000    10.460000     2
       H      NH1        C     CTD1     9   180.000000    10.460000     2
       H      NH1        C     CPD1     9   180.000000    10.460000     2
       H      NH1        C     CTL2     9   180.000000    10.460000     2
       H      NH1      CT1        C     9     0.000000     0.000000     1
       H      NH1      CT1       CC     9     0.000000     0.000000     1
       H      NH1      CT1       CD     9     0.000000     0.000000     1
       H      NH1      CT1      CT1     9     0.000000     0.000000     1
       H      NH1      CT1      CT2     9     0.000000     0.000000     1
       H      NH1      CT1      CT3     9     0.000000     0.000000     1
       H      NH1      CT1     CT2A     9     0.000000     0.000000     1
       H      NH1      CT1       CS     9     0.000000     0.000000     1
       H      NH1      CT1    CC321     9     0.000000     0.000000     1
       H      NH1      CT1   CG2R61     9     0.000000     0.000000     1
       H      NH1      CT1    CG301     9     0.000000     0.000000     1
       H      NH1      CT1    CG311     9     0.000000     0.000000     1
       H      NH1      CT1    CG321     9     0.000000     0.000000     1
       H      NH1      CT1    CG324     9     0.000000     0.000000     1
       H      NH1      CT1   CG3C51     9     0.000000     0.000000     1
       H      NH1      CT1   CG2R51     9     0.000000     0.000000     1
       H      NH1      CT1    CG322     9     0.000000     0.000000     1
       H      NH1      CT1     CTD1     9     0.000000     0.000000     1
       H      NH1      CT2        C     9     0.000000     0.000000     1
       H      NH1      CT2       CC     9     0.000000     0.000000     1
       H      NH1      CT2       CD     9     0.000000     0.000000     1
       H      NH1      CT2      CT2     9     0.000000     0.000000     1
       H      NH1      CT2      CT3     9     0.000000     0.000000     1
       H      NH1      CT2     CT2P     9     0.000000     0.000000     1
       H      NH1     CT2A       CC     9     0.000000     0.000000     1
       H      NH1       CT        C     9     0.000000     0.000000     1
       H      NH1       CT      CT3     9     0.000000     0.000000     1
       H      NH1       CT      CT2     9     0.000000     0.000000     1
       H      NH1       CT     CT2A     9     0.000000     0.000000     1
       H      NH1       CT       CC     9     0.000000     0.000000     1
       H      NH1       CT       CD     9     0.000000     0.000000     1
       H      NH1    CG2O1    SG2D1     9   180.000000     4.939212     2
       H      NH1     CTD1   CG2R51     9     0.000000     0.000000     1
       H      NH1     CTD1   CG2R61     9     0.000000     0.000000     1
       H      NH1     CTD1    CG311     9     0.000000     0.000000     1
       H      NH1     CTD1    CG321     9     0.000000     0.000000     1
       H      NH1     CTD1    CG322     9     0.000000     0.000000     1
       H      NH1     CTD1    CG324     9     0.000000     0.000000     1
       H      NH1     CTD1        C     9     0.000000     0.000000     1
       H      NH1     CTD1       CC     9     0.000000     0.000000     1
       H      NH1     CTD1       CD     9     0.000000     0.000000     1
       H      NH1     CTD1     CTD1     9     0.000000     0.000000     1
       H      NH1     CTD1      CT1     9     0.000000     0.000000     1
       H      NH1     CTD1      CT2     9     0.000000     0.000000     1
       H      NH1     CTD1      CT3     9     0.000000     0.000000     1
       H      NH1     CTD1     CT2A     9     0.000000     0.000000     1
       H      NH1       CA       CA     9   180.000000     2.092000     2
       H      NR1     CPH1     CPH1     9   180.000000     4.184000     2
       H      NR1     CPH1      CT2     9   180.000000     4.184000     2
       H      NR1     CPH1      CT3     9   180.000000     4.184000     2
       H      NR3     CPH1     CPH1     9   180.000000     5.857600     2
       H      NR3     CPH1      CT2     9   180.000000    12.552000     2
       H      NR3     CPH1      CT3     9   180.000000    12.552000     2
       H      OH1       CA       CA     9   180.000000     4.142160     2
       H      OH1      CT1      CT3     9     0.000000     5.564720     1
       H      OH1      CT1      CT3     9     0.000000     0.753120     2
       H      OH1      CT1      CT3     9     0.000000     1.338880     3
       H      OH1      CT2      CT2     9     0.000000     5.439200     1
       H      OH1      CT2      CT2     9     0.000000     1.255200     2
       H      OH1      CT2      CT2     9     0.000000     1.757280     3
       H      OH1      CT2      CT3     9     0.000000     5.439200     1
       H      OH1      CT2      CT3     9     0.000000     1.255200     2
       H      OH1      CT2      CT3     9     0.000000     1.757280     3
       H      OH1     CTD1      CT1     9     0.000000     5.564720     1
       H      OH1     CTD1      CT1     9     0.000000     0.753120     2
       H      OH1     CTD1      CT1     9     0.000000     1.338880     3
       H      OH1     CTD1      CT3     9     0.000000     5.564720     1
       H      OH1     CTD1      CT3     9     0.000000     0.753120     2
       H      OH1     CTD1      CT3     9     0.000000     1.338880     3
       H      OH1     CTL1     CEL3     9     0.000000     5.439200     1
       H      OH1     CTL1     CEL3     9     0.000000     2.928800     2
       H      OH1     CTL1     CEL3     9     0.000000     0.585760     3
       H      NHL       CL      OSL     9   180.000000    10.460000     2
       H      NHL       CL      OBL     9   180.000000    10.460000     2
       H      NHL     CTL2     HAL2     9     0.000000     0.000000     3
       H      NHL     CTL2     CTL2     9     0.000000     0.000000     1
       H      NHL        C        O     9     0.000000     2.217520     1
       H      NHL        C        O     9   180.000000     5.313680     2
       H      NHL        C        O     9     0.000000     0.585760     3
       H      NHL        C        O     9     0.000000     3.263520     4
       H      NHL        C     CTL2     9   180.000000    10.460000     2
       H      NHL        C     CTL3     9   180.000000    10.460000     2
       H      NHL        C     CTL1     9   180.000000    10.460000     2
       H      NHL     CTL1     CTL2     9     0.000000     0.000000     1
       H      NHL     CTL1     CTL1     9     0.000000     0.000000     1
       H      NHL     CTL1     CTL3     9   180.000000    10.460000     2
       H      NHL     CTL1     CTO1     9     0.000000     0.000000     1
       H      NHL     CTL1     CTO2     9     0.000000     0.000000     1
      CC     CT2A      CT1      NH2     9   180.000000     2.845120     1
      CC     CT2A      CT1      NH2     9   180.000000     0.418400     2
      CC     CT2A      CT1      NH2     9     0.000000     1.589920     3
      CC     CT2A      CT1      NH1     9   180.000000     2.845120     1
      CC     CT2A      CT1      NH1     9   180.000000     0.418400     2
      CC     CT2A      CT1      NH1     9     0.000000     1.589920     3
      CC     CT2A      CT1       CC     9     0.000000     0.836800     3
      CC     CT2A       CT      NH1     9   180.000000     2.845120     1
      CC     CT2A       CT      NH1     9   180.000000     0.418400     2
      CC     CT2A       CT      NH1     9     0.000000     1.589920     3
      CC     CT2A       CT       CC     9     0.000000     0.836800     3
      CC      CP1        N        C     9     0.000000     3.347200     3
      CC      CT1      CT2       CA     9     0.000000     0.167360     3
      CC      CT1      CT2       OC     9     0.000000     0.836800     3
      CC      CT1      NH1        C     9   180.000000     0.836800     1
      CC      CT1      NH1    CG2O1     9   180.000000     0.836800     1
      CC      CT1     CT2A      CT2     9   180.000000     6.694400     3
      CC      CT1     CT2A      CT1     9     0.000000     0.836800     3
      CC      CT1       CS      HA2     9     0.000000     0.836800     3
      CC      CT1       CS       SS     9     0.000000     0.836800     3
      CC      CT2      NH1        C     9   180.000000     8.368000     1
      CC      CT2      CT2      CT1     9   180.000000     7.698560     1
      CC      CT2      CT2      CT1     9   180.000000     3.514560     2
      CC      CT2      CT2      CT1     9   180.000000     1.631760     3
      CC      CT2      CT2       CT     9   180.000000     7.698560     1
      CC      CT2      CT2       CT     9   180.000000     3.514560     2
      CC      CT2      CT2       CT     9   180.000000     1.631760     3
      CC      CT2      CT2     CTD1     9   180.000000     7.698560     1
      CC      CT2      CT2     CTD1     9   180.000000     3.514560     2
      CC      CT2      CT2     CTD1     9   180.000000     1.631760     3
      CC      CT2      CT1      NH1     9   180.000000     1.171520     1
      CC      CT2      CT1      NH1     9   180.000000     2.092000     2
      CC      CT2      CT1      NH1     9     0.000000     1.589920     3
      CC      CT2     CT2A      CT1     9   180.000000     0.000000     1
      CC      CT2     CT2A      CT1     9   180.000000     1.589920     2
      CC      CT2     CT2A      CT1     9   180.000000     2.468560     3
      CC      CT2     CT2A       CT     9   180.000000     0.000000     1
      CC      CT2     CT2A       CT     9   180.000000     1.589920     2
      CC      CT2     CT2A       CT     9   180.000000     2.468560     3
      CC      CT2     CT2A     CTD1     9   180.000000     0.000000     1
      CC      CT2     CT2A     CTD1     9   180.000000     1.589920     2
      CC      CT2     CT2A     CTD1     9   180.000000     2.468560     3
      CC      CT2       CT      NH1     9   180.000000     1.171520     1
      CC      CT2       CT      NH1     9   180.000000     2.092000     2
      CC      CT2       CT      NH1     9     0.000000     1.589920     3
      CC      CT2        N       CC     9     0.000000     4.184000     1
      CC      CT2        N       CC     9     0.000000     3.765600     2
      CC      CT2        N       CC     9   180.000000     2.092000     3
      CC      CT2        N       CC     9     0.000000     1.255200     4
      CC      CT2        N       CC     9     0.000000     0.418400     6
      CC      CT2        N     CT2P     9   180.000000     4.184000     1
      CC      CT2        N     CT2P     9     0.000000     3.765600     2
      CC      CT2        N     CT2P     9     0.000000     2.092000     3
      CC      CT2        N     CT2P     9     0.000000     1.255200     4
      CC      CT2        N     CT2P     9     0.000000     0.418400     6
      CC      CT2     CTD1      NH1     9   180.000000     1.171520     1
      CC      CT2     CTD1      NH1     9   180.000000     2.092000     2
      CC      CT2     CTD1      NH1     9     0.000000     1.589920     3
      CC       CT     CT2A      CT2     9   180.000000     6.694400     3
      CC       CT      CT2       CA     9     0.000000     0.167360     3
      CC       CT      NH1        C     9   180.000000     0.836800     1
      CC       CT      CT3      HA3     9     0.000000     0.836800     3
      CC       CT      NH3       HC     9     0.000000     0.418400     3
      CC        N     CT2P      CT2     9     0.000000     2.510400     1
      CC        N     CT2P      CT2     9     0.000000     1.882800     2
      CC        N     CT2P      HB2     9   180.000000     0.418400     3
      CC        N      CT2      HB2     9   180.000000     0.418400     3
      CC     CTD1      CT2       CA     9     0.000000     0.167360     3
      CC     CTD1      NH1        C     9   180.000000     0.836800     1
      CC     CTD1     CT2A      CT2     9   180.000000     6.694400     3
      CC     CPD1        N        C     9     0.000000     3.347200     3
      CC     CC1A     CC1A      CT3     9   180.000000     2.343040     1
      CC     CC1A     CC1A      CT3     9   180.000000    29.288000     2
      CD      CT1     CT2A       CC     9   180.000000     6.736240     1
      CD      CT1     CT2A       CC     9   180.000000     5.397360     2
      CD      CT1     CT2A       CC     9   180.000000     2.468560     3
      CD      CT1     CT2A      CT1     9     0.000000     0.836800     3
      CD      CT1      NH1        C     9   180.000000     0.836800     1
      CD      CT1       CS      HA2     9     0.000000     0.836800     3
      CD      CT1       CS       SS     9     0.000000     0.836800     3
      CD      CT1      CT2       OC     9     0.000000     0.836800     3
      CD      CP1        N        C     9   180.000000     0.000000     1
      CD      CT2      NH1        C     9   180.000000     8.368000     1
      CD       CT      NH1        C     9   180.000000     0.836800     1
      CD     CTD1      NH1        C     9   180.000000     0.836800     1
      CD     CPD1        N        C     9   180.000000     0.000000     1
     CAI       CA       CA      CAI     9   180.000000    12.970400     2
     CAI      CPT      CPT      CAI     9   180.000000    12.552000     2
      CA      CPT      CPT       CA     9   180.000000    12.552000     2
      CA       CY      CPT       CA     9   180.000000    12.552000     2
      CA       CY      CPT      CAI     9   180.000000    12.552000     2
      CA       CY      CT2      CT1     9     0.000000     0.125520     1
      CA       CY      CT2      CT1     9     0.000000     2.301200     2
      CA       CY      CT2      CT1     9   180.000000     1.631760     3
      CA       CY      CT2       CT     9     0.000000     0.125520     1
      CA       CY      CT2       CT     9     0.000000     2.301200     2
      CA       CY      CT2       CT     9   180.000000     1.631760     3
      CA       CY      CT2     CTD1     9     0.000000     0.125520     1
      CA       CY      CT2     CTD1     9     0.000000     2.301200     2
      CA       CY      CT2     CTD1     9   180.000000     1.631760     3
      CA       NY      CPT       CA     9   180.000000    12.552000     2
      CA       NY      CPT      CAI     9   180.000000    12.552000     2
      CA       CA       CA       CA     9   180.000000    12.970400     2
      CA       CA       CA     ON2B     9   180.000000    12.970400     2
      CA       CA       CA      CF2     9   180.000000    12.970400     2
      CA       CA       CA      NH1     9   180.000000    12.970400     2
      CA       CA      CT2      CT1     9     0.000000     4.476880     1
      CA       CA      CT2      CT1     9   180.000000     1.004160     2
      CA       CA      CT2      CT1     9   180.000000     0.711280     3
      CA       CA      CT2        P     9   180.000000     0.836800     2
      CA       CA      CT2       CT     9     0.000000     4.476880     1
      CA       CA      CT2       CT     9   180.000000     1.004160     2
      CA       CA      CT2       CT     9   180.000000     0.711280     3
      CA       CA      CT2     CTD1     9     0.000000     4.476880     1
      CA       CA      CT2     CTD1     9   180.000000     1.004160     2
      CA       CA      CT2     CTD1     9   180.000000     0.711280     3
      CA       CA     ON2B        P     9   180.000000     5.857600     2
      CA       CA     ON2B        P     9   180.000000     0.836800     3
      CA       CA      CF2       F2     9     0.000000     1.255200     2
      CA       CA      CF2       F2     9     0.000000     1.673600     3
      CA       CA      CF2        P     9   180.000000     0.627600     2
      CA      CT2      CT1      NH1     9   180.000000     2.175680     1
      CA      CT2      CT1      NH1     9   180.000000     2.594080     2
      CA      CT2      CT1      NH1     9     0.000000     6.610720     3
      CA      CT2        P      ON4     9   180.000000     6.903600     1
      CA      CT2        P      ON4     9     0.000000     2.092000     2
      CA      CT2        P      ON3     9     0.000000     0.209200     3
      CA      CT2       CT      NH1     9   180.000000     2.175680     1
      CA      CT2       CT      NH1     9   180.000000     2.594080     2
      CA      CT2       CT      NH1     9     0.000000     6.610720     3
      CA      CT2     CTD1      NH1     9   180.000000     2.175680     1
      CA      CT2     CTD1      NH1     9   180.000000     2.594080     2
      CA      CT2     CTD1      NH1     9     0.000000     6.610720     3
      CA     ON2B        P      ON4     9     0.000000     3.974800     2
      CA     ON2B        P      ON4     9     0.000000     2.092000     3
      CA     ON2B        P      ON3     9     0.000000     0.418400     3
      CA      CF2        P      ON4     9     0.000000     0.418400     2
      CA      CF2        P      ON4     9     0.000000     1.673600     3
      CA      CF2        P      ON3     9     0.000000     0.000000     3
      CA      NH1        C      CT3     9   180.000000    10.460000     2
     CPT       CA       CA       CA     9   180.000000    12.552000     2
     CPT      CPT       CA       CA     9   180.000000    12.552000     2
     CPT      CPT      CAI       CA     9   180.000000    12.552000     2
     CPT      CPT       CY       CA     9   180.000000    20.920000     2
     CPT      CPT       NY       CA     9   180.000000    27.196000     2
     CPT      CAI       CA       CA     9   180.000000    12.552000     2
     CPT       CY      CT2      CT1     9   180.000000     1.506240     1
     CPT       CY      CT2      CT1     9     0.000000     0.209200     2
     CPT       CY      CT2      CT1     9   180.000000     0.794960     3
     CPT       CY      CT2       CT     9   180.000000     1.506240     1
     CPT       CY      CT2       CT     9     0.000000     0.209200     2
     CPT       CY      CT2       CT     9   180.000000     0.794960     3
     CPT       CY      CT2     CTD1     9   180.000000     1.506240     1
     CPT       CY      CT2     CTD1     9     0.000000     0.209200     2
     CPT       CY      CT2     CTD1     9   180.000000     0.794960     3
     CT3       CY      CPT       CA     9   180.000000    10.460000     2
     CT3       CY      CPT      CAI     9   180.000000    10.460000     2
     CT3       CY      CPT      CPT     9   180.000000    12.552000     2
     CT3      CT2       CY       CA     9     0.000000     1.589920     2
     CT3      CT2       CY      CPT     9   180.000000     1.046000     2
     CT3      CT2       CY      CPT     9     0.000000     1.255200     3
     CT3      CT2       CA       CA     9   180.000000     0.962320     2
     CT3      CT2     CPH1     CPH1     9     0.000000     0.836800     1
     CT3      CT2     CPH1     CPH1     9     0.000000     1.129680     2
     CT3      CT2     CPH1     CPH1     9     0.000000     0.000000     3
     CT3      CT2        S      CT3     9   180.000000     1.004160     1
     CT3      CT2        S      CT3     9     0.000000     1.548080     3
     CT3      CT2      CT2      CT3     9     0.000000     0.627600     1
     CT3        C        N      CP1     9   180.000000    11.506000     2
     CT3        C        N      CP1     9     0.000000     1.255200     4
     CT3        C        N      CP3     9   180.000000    11.506000     2
     CT3        C        N      CP3     9     0.000000     1.255200     4
     CT3        C        N      CT3     9   180.000000    10.878400     2
     CT3        C        N      CT2     9   180.000000    10.878400     2
     CT3        C        N     CPD1     9   180.000000    11.506000     2
     CT3        C        N     CPD1     9     0.000000     1.255200     4
     CT3        C      NH1      CT1     9     0.000000     6.694400     1
     CT3        C      NH1      CT1     9   180.000000    10.460000     2
     CT3        C      NH1      CT2     9     0.000000     6.694400     1
     CT3        C      NH1      CT2     9   180.000000    10.460000     2
     CT3        C      NH1      CT3     9     0.000000     6.694400     1
     CT3        C      NH1      CT3     9   180.000000    10.460000     2
     CT3        C      NH1       CT     9     0.000000     6.694400     1
     CT3        C      NH1       CT     9   180.000000    10.460000     2
     CT3        C      NH1     CTD1     9     0.000000     6.694400     1
     CT3        C      NH1     CTD1     9   180.000000    10.460000     2
     CT3        C    NG2D1   CG2DC1     9   180.000000     4.847582     1
     CT3        C    NG2D1   CG2DC1     9     0.000000     6.292318     2
     CT3        C    NG2S0    CG311     9   180.000000    10.878400     2
     CT3        C    NG2S0    CG321     9   180.000000    10.878400     2
     CT3        C    NG2S0    CG331     9   180.000000    10.878400     2
     CT3        C    NG2S0   CG3C50     9   180.000000    11.506000     2
     CT3        C    NG2S0   CG3C50     9     0.000000     1.255200     4
     CT3        C    NG2S0   CG3C51     9   180.000000    11.506000     2
     CT3        C    NG2S0   CG3C51     9     0.000000     1.255200     4
     CT3        C    NG2S0   CG3C52     9   180.000000    11.506000     2
     CT3        C    NG2S0   CG3C52     9     0.000000     1.255200     4
     CT3        C    NG2S1   CG2D1O     9     0.000000     6.586034     1
     CT3        C    NG2S1   CG2D1O     9   180.000000     0.217568     2
     CT3        C    NG2S1    CG311     9     0.000000     6.694400     1
     CT3        C    NG2S1    CG311     9   180.000000    10.460000     2
     CT3        C    NG2S1   CG3C51     9     0.000000     6.694400     1
     CT3        C    NG2S1   CG3C51     9   180.000000    10.460000     2
     CT3        C    NG2S1     HGP1     9   180.000000    10.460000     2
     CT3       CA       CA       CA     9   180.000000    12.970400     2
     CT3      CE1      CE2      HE2     9   180.000000    21.756800     2
     CT3      CE1      CE1      HE1     9   180.000000     4.184000     2
     CT3     CPH1      NR1     CPH2     9   180.000000    12.552000     2
     CT3      CT1      NH1        C     9     0.000000     7.531200     1
     CT3      CT1      CT2      HA2     9     0.000000     0.836800     3
     CT3      CT1      CT2      CT3     9     0.000000     0.836800     3
     CT3      CT1      CT3      HA3     9     0.000000     0.836800     3
     CT3      CT1      CT1      NH1     9     0.000000     0.753120     1
     CT3      CT1      CT1      NH1     9     0.000000     0.251040     2
     CT3      CT1      CT1      NH1     9     0.000000     2.468560     3
     CT3      CT1      ON2        P     9   180.000000     1.673600     1
     CT3      CT1      ON2        P     9     0.000000     1.255200     2
     CT3      CT1      ON2        P     9     0.000000     0.418400     3
     CT3      CT1        C    NG2S0     9     0.000000     0.000000     1
     CT3      CT1        C    NG2S1     9     0.000000     0.000000     1
     CT3      CT1     CTD1      NH1     9     0.000000     0.753120     1
     CT3      CT1     CTD1      NH1     9     0.000000     0.251040     2
     CT3      CT1     CTD1      NH1     9     0.000000     2.468560     3
     CT3      NH1        C      CP1     9     0.000000     6.694400     1
     CT3      NH1        C      CP1     9   180.000000    10.460000     2
     CT3      NH1        C      CT1     9     0.000000     6.694400     1
     CT3      NH1        C      CT1     9   180.000000    10.460000     2
     CT3      NH1        C       CT     9     0.000000     6.694400     1
     CT3      NH1        C       CT     9   180.000000    10.460000     2
     CT3      NH1        C     CTD1     9     0.000000     6.694400     1
     CT3      NH1        C     CTD1     9   180.000000    10.460000     2
     CT3      NH1        C     CPD1     9     0.000000     6.694400     1
     CT3      NH1        C     CPD1     9   180.000000    10.460000     2
     CT3        S      CT2      CT2     9   180.000000     1.004160     1
     CT3        S      CT2      CT2     9     0.000000     1.548080     3
     CT3        S      CT2      CT1     9   180.000000     1.004160     1
     CT3        S      CT2      CT1     9     0.000000     1.548080     3
     CT3       SM       SM      CT3     9     0.000000     4.184000     1
     CT3       SM       SM      CT3     9     0.000000    17.154400     2
     CT3       SM       SM      CT3     9     0.000000     3.765600     3
     CT3       SP     CN8B      CN7     9   180.000000     1.635944     1
     CT3       SP     CN8B      CN7     9     0.000000     1.560632     3
     CT3       SP      CT2      CT2     9   180.000000     1.635944     1
     CT3       SP      CT2      CT2     9     0.000000     1.560632     3
     CT3       CT     CT2A      HA2     9     0.000000     0.794960     3
     CT3       CT     CT2A       CC     9     0.000000     0.836800     3
     CT3       CT      CT2      CT1     9     0.000000     0.836800     3
     CT3       CT      CT2      HA2     9     0.000000     0.794960     3
     CT3       CT      NH1        C     9     0.000000     0.000000     1
     CT3       CT       CC       OC     9   180.000000     0.209200     6
     CT3       CT      NH3       HC     9     0.000000     0.418400     3
     CT3       CT     CC1A      CT3     9     0.000000     1.673600     3
     CT3       CT      CT3      HA3     9     0.000000     0.669440     3
     CT3      NR1     CPH1      HR3     9   180.000000    12.552000     2
     CT3      NR1     CPH2      HR3     9   180.000000    12.552000     2
     CT3      NR1     CPH2      HR1     9   180.000000    12.552000     2
     CT3      NR3     CPH2      HR2     9   180.000000    12.552000     2
     CT3      NR3     CPH1      HR1     9   180.000000    12.552000     2
     CT3   CG2R51   NG2R50   NG2R50     9   180.000000    23.012000     2
     CT3   CG2R51   CG2R51    HGR52     9   180.000000     8.368000     2
     CT3     CTD1      NH1        C     9     0.000000     7.531200     1
     CT3     CC1A     CC1A      HE1     9   180.000000    21.756800     2
     CT3     CC1A     CC1A      CT3     9   180.000000    41.840000     2
     CT3     CC1A     CC1A       CD     9   180.000000     2.343040     1
     CT3     CC1A     CC1A       CD     9   180.000000     2.092000     2
     CT3     CC1A      CC2      HE2     9   180.000000     4.184000     2
     CT3     CC1A     CC1B      HE1     9   180.000000     4.184000     2
     CT3     CC1A     CC1B      CC2     9   180.000000     4.602400     1
     CT3     CC1A     CC1B      CC2     9   180.000000     2.928800     2
     CT3     CC1A     CC1B     CC1B     9   180.000000     4.602400     1
     CT3     CC1A     CC1B     CC1B     9   180.000000     2.928800     2
     CT3     CC1A      CT2      HA2     9     0.000000     0.794960     3
     CT3     CC1A      CT3      HA3     9     0.000000     1.255200     3
     CT3     CC1B     CC1B      HE1     9   180.000000    21.756800     2
     CT3     CC1B      CT3      HA3     9     0.000000     1.255200     3
     CT3      NS1     CC1B      HE1     9   180.000000    35.564000     2
     CT3      NS1     CC1B      CT3     9   180.000000    50.208000     2
     CT3      NS2     CC1B      HR1     9   180.000000    35.564000     2
     CT3      NS2     CC1B      CT3     9   180.000000    29.288000     2
     CT3      NS2     CC1B     CC1A     9   180.000000    29.288000     2
     CT2       CY      CPT       CA     9   180.000000    10.460000     2
     CT2       CY      CPT      CAI     9   180.000000    10.460000     2
     CT2       CY      CPT      CPT     9   180.000000    12.552000     2
     CT2        C        N      CP1     9   180.000000    11.506000     2
     CT2        C        N      CP1     9     0.000000     1.255200     4
     CT2        C        N      CP3     9   180.000000    11.506000     2
     CT2        C        N      CP3     9     0.000000     1.255200     4
     CT2        C        N      CT2     9   180.000000    10.878400     2
     CT2        C        N      CT3     9   180.000000    10.878400     2
     CT2        C        N     CPD1     9   180.000000    11.506000     2
     CT2        C        N     CPD1     9     0.000000     1.255200     4
     CT2        C      NH1      CT1     9     0.000000     6.694400     1
     CT2        C      NH1      CT1     9   180.000000    10.460000     2
     CT2        C      NH1      CT2     9     0.000000     6.694400     1
     CT2        C      NH1      CT2     9   180.000000    10.460000     2
     CT2        C      NH1      CT3     9     0.000000     6.694400     1
     CT2        C      NH1      CT3     9   180.000000    10.460000     2
     CT2        C      NH1       CT     9     0.000000     6.694400     1
     CT2        C      NH1       CT     9   180.000000    10.460000     2
     CT2        C      NH1     CTD1     9     0.000000     6.694400     1
     CT2        C      NH1     CTD1     9   180.000000    10.460000     2
     CT2        C    NG2D1   CG2DC1     9     0.000000     6.694400     1
     CT2        C    NG2D1   CG2DC1     9   180.000000    10.460000     2
     CT2        C    NG2S0    CG311     9     0.000000     6.694400     1
     CT2        C    NG2S0    CG311     9   180.000000    10.460000     2
     CT2        C    NG2S0    CG321     9     0.000000     6.694400     1
     CT2        C    NG2S0    CG321     9   180.000000    10.460000     2
     CT2        C    NG2S0    CG331     9     0.000000     6.694400     1
     CT2        C    NG2S0    CG331     9   180.000000    10.460000     2
     CT2        C    NG2S0   CG3C50     9     0.000000     6.694400     1
     CT2        C    NG2S0   CG3C50     9   180.000000    10.460000     2
     CT2        C    NG2S0   CG3C51     9     0.000000     6.694400     1
     CT2        C    NG2S0   CG3C51     9   180.000000    10.460000     2
     CT2        C    NG2S0   CG3C52     9     0.000000     6.694400     1
     CT2        C    NG2S0   CG3C52     9   180.000000    10.460000     2
     CT2        C    NG2S1   CG2D1O     9     0.000000     6.694400     1
     CT2        C    NG2S1   CG2D1O     9   180.000000    10.460000     2
     CT2        C    NG2S1    CG311     9     0.000000     6.694400     1
     CT2        C    NG2S1    CG311     9   180.000000    10.460000     2
     CT2        C    NG2S1    CG321     9     0.000000     6.694400     1
     CT2        C    NG2S1    CG321     9   180.000000    10.460000     2
     CT2        C    NG2S1   CG3C51     9     0.000000     6.694400     1
     CT2        C    NG2S1   CG3C51     9   180.000000    10.460000     2
     CT2        C    NG2S1     HGP1     9     0.000000     0.460240     3
     CT2       CA       CA       CA     9   180.000000    12.970400     2
     CT2     CPH1      NR1     CPH2     9   180.000000    12.552000     2
     CT2     CPH1      NR2     CPH2     9   180.000000    12.552000     2
     CT2     CPH1      NR3     CPH2     9   180.000000    10.460000     2
     CT2      CT1      NH1        C     9     0.000000     7.531200     1
     CT2      CT1      CT1      NH1     9   180.000000     0.502080     1
     CT2      CT1      CT1      NH1     9   180.000000     1.506240     2
     CT2      CT1      CT1      NH1     9     0.000000     1.715440     3
     CT2      CT1        C    NG2D1     9     0.000000     0.000000     1
     CT2      CT1        C    NG2S0     9     0.000000     0.000000     1
     CT2      CT1        C    NG2S1     9     0.000000     0.000000     1
     CT2      CT1     CTD1      NH1     9   180.000000     0.502080     1
     CT2      CT1     CTD1      NH1     9   180.000000     1.506240     2
     CT2      CT1     CTD1      NH1     9     0.000000     1.715440     3
     CT2      CT2     CPH1     CPH1     9     0.000000     1.673600     1
     CT2      CT2      CT2      CT2     9     0.000000     0.627600     1
     CT2      CT2      CT2      CT2     9   180.000000     0.418400     2
     CT2      CT2      CT2      CT2     9     0.000000     0.627600     4
     CT2      CT2      CT2      CT2     9   180.000000     0.418400     6
     CT2      CT2      CT2      CT3     9     0.000000     0.627600     1
     CT2      CT2      CT2      CT3     9   180.000000     0.418400     2
     CT2      CT2      CT2      CT3     9     0.000000     0.627600     4
     CT2      CT2      CT2      CT3     9   180.000000     0.418400     6
     CT2      CT2      CT2      HA2     9     0.000000     0.794960     3
     CT2      CT2      CT2      NC2     9     0.000000     0.794960     3
     CT2      CT2      CT2      NH3     9     0.000000     0.794960     3
     CT2      CT2      CT2   NG2R51     9     0.000000     0.836800     3
     CT2      CT2      NH1        C     9     0.000000     7.531200     1
     CT2      CT2      NC2       HC     9   180.000000     0.000000     6
     CT2      CT2      NC2        C     9   180.000000     0.000000     6
     CT2      CT2      NH3       HC     9     0.000000     0.418400     3
     CT2      CT2       CC        O     9   180.000000     0.209200     6
     CT2      CT2       CC      NH2     9   180.000000     0.209200     6
     CT2      CT2       CC       OC     9   180.000000     0.209200     6
     CT2      CT2      CT1      NH1     9   180.000000     3.681920     1
     CT2      CT2      CT1      NH1     9   180.000000     0.000000     2
     CT2      CT2      CT1      NH1     9     0.000000     7.949600     3
     CT2      CT2       CT      NH1     9   180.000000     3.681920     1
     CT2      CT2       CT      NH1     9   180.000000     0.000000     2
     CT2      CT2       CT      NH1     9     0.000000     7.949600     3
     CT2      CT2       CT     CC1A     9     0.000000     0.836800     3
     CT2      CT2       CT      CT3     9     0.000000     0.836800     3
     CT2      CT2   NG2R51   CG2R51     9     0.000000     1.610840     1
     CT2      CT2   NG2R51   CG2R51     9     0.000000     1.757280     2
     CT2      CT2   NG2R51   CG2R51     9     0.000000     0.334720     3
     CT2      CT2   NG2R51   CG2R51     9     0.000000     0.230120     4
     CT2      CT2   NG2R51   NG2R50     9   180.000000     1.610840     1
     CT2      CT2   NG2R51   NG2R50     9     0.000000     1.757280     2
     CT2      CT2   NG2R51   NG2R50     9   180.000000     0.334720     3
     CT2      CT2   NG2R51   NG2R50     9     0.000000     0.230120     4
     CT2      CT2      CE1      HE1     9     0.000000     0.502080     3
     CT2      CT2      CE1      CE2     9   180.000000     2.092000     1
     CT2      CT2      CE1      CE2     9   180.000000     5.439200     3
     CT2      CT2      CE1      CE1     9   180.000000     2.092000     1
     CT2      CT2      CE1      CE1     9   180.000000     5.439200     3
     CT2      CT2     CTD1      NH1     9   180.000000     3.681920     1
     CT2      CT2     CTD1      NH1     9   180.000000     0.000000     2
     CT2      CT2     CTD1      NH1     9     0.000000     7.949600     3
     CT2      CT2     CC1A      CT3     9     0.000000     0.794960     3
     CT2      CT2      NS1     CC1B     9     0.000000     0.418400     3
     CT2      CT2      NS2     CC1B     9     0.000000     0.418400     3
     CT2      CT2      NS2       HC     9     0.000000     0.418400     3
     CT2      NH1        C      CP1     9     0.000000     6.694400     1
     CT2      NH1        C      CP1     9   180.000000    10.460000     2
     CT2      NH1        C      CT1     9     0.000000     6.694400     1
     CT2      NH1        C      CT1     9   180.000000    10.460000     2
     CT2      NH1        C       CT     9     0.000000     6.694400     1
     CT2      NH1        C       CT     9   180.000000    10.460000     2
     CT2      NH1        C     CTD1     9     0.000000     6.694400     1
     CT2      NH1        C     CTD1     9   180.000000    10.460000     2
     CT2      NH1        C     CPD1     9     0.000000     6.694400     1
     CT2      NH1        C     CPD1     9   180.000000    10.460000     2
     CT2      NH1        C     CTL2     9     0.000000     0.000000     1
     CT2       SM       SM      CT2     9     0.000000     4.184000     1
     CT2       SM       SM      CT2     9     0.000000    17.154400     2
     CT2       SM       SM      CT2     9     0.000000     3.765600     3
     CT2      NC2        C      NC2     9   180.000000     9.414000     2
     CT2     CT2A      CT1      NH1     9     0.000000     1.255200     1
     CT2     CT2A      CT1      NH1     9     0.000000     1.464400     2
     CT2     CT2A      CT1      NH1     9     0.000000     7.363840     3
     CT2     CT2A      CT1       CD     9     0.000000     0.836800     3
     CT2     CT2A       CT      NH1     9     0.000000     1.255200     1
     CT2     CT2A       CT      NH1     9     0.000000     1.464400     2
     CT2     CT2A       CT      NH1     9     0.000000     7.363840     3
     CT2     CT2A       CT       CD     9     0.000000     0.836800     3
     CT2     CT2A     CTD1      NH1     9     0.000000     1.255200     1
     CT2     CT2A     CTD1      NH1     9     0.000000     1.464400     2
     CT2     CT2A     CTD1      NH1     9     0.000000     7.363840     3
     CT2        P      ON4      HN4     9   180.000000     2.510400     1
     CT2        P      ON4      HN4     9     0.000000     4.602400     2
     CT2      ON2        P      ON3     9     0.000000     0.418400     3
     CT2      ON2        P      ON4     9     0.000000     3.974800     2
     CT2      ON2        P      ON4     9     0.000000     2.092000     3
     CT2        S     CN8B      HN8     9     0.000000     1.171520     3
     CT2        S      CN8      CN8     9   180.000000     1.004160     1
     CT2        S      CN8      CN8     9     0.000000     1.548080     3
     CT2        S      CN8      HN8     9     0.000000     1.171520     3
     CT2        S       CL     CTL2     9   180.000000     1.004160     1
     CT2        S       CL     CTL2     9     0.000000     1.548080     3
     CT2        S       CL      OBL     9   180.000000     8.577200     2
     CT2        S    CG321     HGA2     9     0.000000     1.171520     3
     CT2        S    CG321    CG2D1     9   180.000000     1.004160     1
     CT2        S    CG321    CG2D1     9     0.000000     1.548080     3
     CT2        S    CG321     CTL1     9   180.000000     1.004160     1
     CT2        S    CG321     CTL1     9     0.000000     1.548080     3
     CT2       SP      CT3      HA3     9     0.000000     1.171520     3
     CT2       SP     CN8B      HN8     9     0.000000     1.171520     3
     CT2    OC301   CC311D     HCA1     9     0.000000     1.188256     3
     CT2    OC301   CC311D   OC3C61     9     0.000000     1.129680     1
     CT2    OC301   CC311D   OC3C61     9     0.000000     0.920480     2
     CT2    OC301   CC311D   OC3C61     9     0.000000     0.292880     3
     CT2    OC301   CC3162     HCA1     9     0.000000     1.188256     3
     CT2    OC301   CC3162   OC3C61     9     0.000000     1.129680     1
     CT2    OC301   CC3162   OC3C61     9     0.000000     0.920480     2
     CT2    OC301   CC3162   OC3C61     9     0.000000     0.292880     3
     CT2       SS       ZN      NR2     9     0.000000     0.000000     3
     CT2       CT      NH1        C     9     0.000000     0.000000     1
     CT2       CT     CC1A      CT3     9     0.000000     1.673600     3
     CT2       CT      CT3      HA3     9     0.000000     0.669440     3
     CT2     CC1A     CC1A      CT2     9   180.000000    41.840000     2
     CT2     CC1A     CC1A      HE1     9   180.000000    21.756800     2
     CT2     CC1A     CC1A      CT3     9   180.000000    41.840000     2
     CT2     CC1A      CT3      HA3     9     0.000000     0.669440     3
     CT2   CG2R51   NG2R50   NG2R50     9   180.000000    12.552000     2
     CT2        N     CT2P      CT2     9     0.000000     3.054320     1
     CT2        N     CT2P      CT2     9     0.000000     6.359680     3
     CT2        N     CT2P      CT2     9     0.000000     2.008320     4
     CT2        N     CT2P      CT2     9     0.000000     1.297040     5
     CT2        N     CT2P      HB2     9   180.000000     0.418400     3
     CT2        N       CC        O     9   180.000000    10.878400     2
     CT2        N       CC      CT2     9   180.000000    10.878400     2
     CT2     CTD1      NH1        C     9     0.000000     7.531200     1
     CT2      NS1     CC1B     CC1A     9   180.000000    50.208000     2
     CT2      NS1     CC1B      HE1     9   180.000000    35.564000     2
     CT2      NS2     CC1B     CC1A     9   180.000000    29.288000     2
     CT2      NS2     CC1B      HR1     9   180.000000    35.564000     2
      CY       CA       NY      CPT     9   180.000000    25.104000     2
      CY      CPT       CA       CA     9   180.000000    16.736000     2
      CY      CPT      CPT       CA     9   180.000000    16.736000     2
      CY      CPT      CPT      CAI     9   180.000000    16.736000     2
      CY      CPT      CAI       CA     9   180.000000    16.736000     2
      CY      CT2      CT1      NH1     9   180.000000     1.213360     1
      CY      CT2      CT1      NH1     9   180.000000     2.761440     2
      CY      CT2      CT1      NH1     9     0.000000     4.895280     3
      CY      CT2       CT      NH1     9   180.000000     1.213360     1
      CY      CT2       CT      NH1     9   180.000000     2.761440     2
      CY      CT2       CT      NH1     9     0.000000     4.895280     3
      CY      CT2     CTD1      NH1     9   180.000000     1.213360     1
      CY      CT2     CTD1      NH1     9   180.000000     2.761440     2
      CY      CT2     CTD1      NH1     9     0.000000     4.895280     3
      HP      CAI       CA       CA     9   180.000000    17.572800     2
      HP      CAI       CA       HP     9   180.000000    10.041600     2
      HP      CAI      CPT      CPT     9   180.000000    12.552000     2
      HP      CAI      CPT       CY     9   180.000000    16.736000     2
      HP       CA       CA      CPT     9   180.000000    12.552000     2
      HP       CA       CA      CAI     9   180.000000    17.572800     2
      HP       CA       CA       CA     9   180.000000    17.572800     2
      HP       CA       CA      CT2     9   180.000000    17.572800     2
      HP       CA       CA      CT3     9   180.000000    17.572800     2
      HP       CA       CA       HP     9   180.000000    10.041600     2
      HP       CA       CA     ON2B     9   180.000000    17.572800     2
      HP       CA       CA      CF2     9   180.000000    17.572800     2
      HP       CA       CA      NH1     9   180.000000    17.572800     2
      HP       CA      CPT      CPT     9   180.000000    12.552000     2
      HP       CA      CPT       CY     9   180.000000    16.736000     2
      HP       CA      CAI      CPT     9   180.000000    12.552000     2
      HP       CA       CY      CPT     9   180.000000    11.715200     2
      HP       CA       CY      CT3     9   180.000000     5.020800     2
      HP       CA       CY      CT2     9   180.000000     5.020800     2
      HP       CA       NY      CPT     9   180.000000    10.878400     2
      HP       CA       NY        H     9   180.000000     1.673600     2
      HP       CY       CA       HP     9   180.000000     4.184000     2
      HP       CY      CPT       CA     9   180.000000    11.715200     2
      HP       CY      CPT      CAI     9   180.000000    11.715200     2
      HP       CY      CPT      CPT     9   180.000000    10.878400     2
      NY       CA       CY      CPT     9   180.000000    20.920000     2
      NY       CA       CY      CT3     9   180.000000    10.460000     2
      NY       CA       CY      CT2     9   180.000000    10.460000     2
      NY       CA       CY       HP     9   180.000000    14.644000     2
      NY       CA       CY       HA     9   180.000000    14.644000     2
      NY      CPT       CA       CA     9   180.000000    12.552000     2
      NY      CPT       CA       HP     9   180.000000    12.552000     2
      NY      CPT       CA       HA     9   180.000000    16.736000     2
      NY      CPT      CPT       CA     9   180.000000    16.736000     2
      NY      CPT      CPT      CAI     9   180.000000    16.736000     2
      NY      CPT      CPT       CY     9   180.000000    27.196000     2
      NY      CPT      CAI       CA     9   180.000000    12.552000     2
      NY      CPT      CAI       HP     9   180.000000    12.552000     2
     HA3      CT3       CY       CA     9     0.000000     0.041840     3
     HA3      CT3       CY      CPT     9     0.000000     0.836800     3
     HA3      CT3     CPH1     CPH1     9     0.000000     0.000000     3
     HA3      CT3       CS      HA2     9     0.000000     0.669440     3
     HA3      CT3       CS      HA3     9     0.000000     0.669440     3
     HA3      CT3      CT2       CA     9     0.000000     0.167360     3
     HA3      CT3      NH1        C     9     0.000000     0.000000     3
     HA3      CT3      NH1        H     9     0.000000     0.000000     3
     HA3      CT3        S      CT2     9     0.000000     1.171520     3
     HA3      CT3      CT1      CT2     9     0.000000     0.836800     3
     HA3      CT3        N      CT3     9     0.000000     1.757280     3
     HA3      CT3        N      CT2     9     0.000000     1.757280     3
     HA3      CT3        N        C     9     0.000000     0.000000     3
     HA3      CT3   CG2R51   NG2R50     9     0.000000     0.794960     3
     HA3      CT3   CG2R51   CG2R51     9     0.000000     0.000000     3
     HA3      CT3        C    NG2D1     9     0.000000     0.000000     3
     HA3      CT3        C    NG2S0     9     0.000000     0.000000     3
     HA3      CT3        C    NG2S1     9     0.000000     0.000000     3
     HA3      CT3      NS2       HC     9     0.000000     0.460240     3
     HA2      CT2       CY       CA     9     0.000000     0.041840     3
     HA2      CT2       CY      CPT     9     0.000000     0.836800     3
     HA2      CT2     CPH1     CPH1     9     0.000000     0.000000     3
     HA2      CT2      NH1        C     9     0.000000     0.000000     3
     HA2      CT2      NH1        H     9     0.000000     0.000000     3
     HA2      CT2        S      CT3     9     0.000000     1.171520     3
     HA2      CT2        S     CN8B     9     0.000000     1.171520     3
     HA2      CT2        S      CN8     9     0.000000     1.171520     3
     HA2      CT2        S   CG2R64     9   180.000000     0.627600     3
     HA2      CT2        S       CL     9     0.000000     1.171520     3
     HA2      CT2        S    CG321     9     0.000000     1.171520     3
     HA2      CT2      CT1        C     9     0.000000     0.836800     3
     HA2      CT2      OH1        H     9     0.000000     0.585760     3
     HA2      CT2      CT2      HA2     9     0.000000     0.794960     3
     HA2      CT2      CT2       CC     9     0.000000     0.794960     3
     HA2      CT2      CT2      NC2     9     0.000000     0.794960     3
     HA2      CT2      CT2      NH3     9     0.000000     0.794960     3
     HA2      CT2      NC2       HC     9   180.000000     0.000000     6
     HA2      CT2      NC2        C     9   180.000000     0.000000     6
     HA2      CT2       CC       OC     9   180.000000     0.209200     6
     HA2      CT2      CT3      HA3     9     0.000000     0.669440     3
     HA2      CT2      NH3       HC     9     0.000000     0.418400     3
     HA2      CT2       CA       CA     9     0.000000     0.000000     6
     HA2      CT2        P      ON4     9     0.000000     0.418400     3
     HA2      CT2        P      ON3     9     0.000000     0.418400     3
     HA2      CT2      ON2        P     9     0.000000     0.000000     3
     HA2      CT2       SP      CT3     9     0.000000     1.171520     3
     HA2      CT2       SP     CN8B     9     0.000000     1.171520     3
     HA2      CT2    OC301   CC3162     9     0.000000     1.188256     3
     HA2      CT2       CT        C     9     0.000000     0.836800     3
     HA2      CT2   NG2R51   CG2R51     9     0.000000     0.000000     3
     HA2      CT2   NG2R51   NG2R50     9     0.000000     0.000000     3
     HA2      CT2   CG2R51   CG2R51     9     0.000000     0.000000     3
     HA2      CT2     CTD1        C     9     0.000000     0.836800     3
     HA2      CT2      NS1     CC1B     9     0.000000     0.418400     3
     HA2      CT2      NS2     CC1B     9     0.000000     0.418400     3
     HA2      CT2      NS2       HC     9     0.000000     0.418400     3
     HA2      CP3        N        C     9   180.000000     0.000000     3
     HA2      CP3        N      CP1     9     0.000000     0.418400     3
     HA2      CP3        N     CPD1     9     0.000000     0.418400     3
     HA2      CP3       NP      CP1     9     0.000000     0.334720     3
     HA2      CP3       NP     CPD1     9     0.000000     0.334720     3
     HA2     CT2A      CT1        C     9     0.000000     0.836800     3
     HA2     CT2A      CT1       CC     9     0.000000     0.836800     3
     HA2     CT2A      CT1       CD     9     0.000000     0.836800     3
     HA2     CT2A      CT2      HA2     9     0.000000     0.794960     3
     HA2     CT2A      CT2       CC     9     0.000000     0.794960     3
     HA2     CT2A      CT2       CD     9     0.000000     0.794960     3
     HA2     CT2A     CPH1     CPH1     9     0.000000     0.000000     3
     HA2     CT2A     CPH1      NR3     9     0.000000     0.794960     3
     HA2     CT2A       CC       OC     9   180.000000     0.209200     6
     HA2     CT2A       CT        C     9     0.000000     0.836800     3
     HA2     CT2A       CT       CC     9     0.000000     0.836800     3
     HA2     CT2A       CT       CD     9     0.000000     0.836800     3
     HA2     CT2A     CTD1        C     9     0.000000     0.836800     3
     HA2     CT2A     CTD1       CC     9     0.000000     0.836800     3
     HA2       CS      CT1        C     9     0.000000     0.836800     3
     HA2       CS       SS       ZN     9     0.000000     0.000000     3
       C      CT1      NH1        C     9   180.000000     0.836800     1
       C      CT1      NH1    CG2O1     9   180.000000     0.836800     1
       C      CT1      CT2      CT2     9   180.000000     1.464400     1
       C      CT1      CT2      CT2     9   180.000000     1.757280     2
       C      CT1      CT2      CT2     9   180.000000     7.991440     3
       C      CT1      CT2       CC     9   180.000000     5.899440     1
       C      CT1      CT2       CC     9   180.000000     5.397360     2
       C      CT1      CT2       CC     9   180.000000     2.468560     3
       C      CT1      CT2        S     9   180.000000     1.004160     1
       C      CT1      CT2        S     9   180.000000     3.138000     2
       C      CT1      CT2        S     9   180.000000     5.648400     3
       C      CT1      CT2     CPH1     9   180.000000     0.753120     1
       C      CT1      CT2     CPH1     9   180.000000     2.677760     2
       C      CT1      CT2     CPH1     9   180.000000     3.640080     3
       C      CT1      CT2      CT1     9   180.000000     1.338880     1
       C      CT1      CT2      CT1     9   180.000000     2.552240     2
       C      CT1      CT2      CT1     9   180.000000     3.012480     3
       C      CT1      CT2       CA     9   180.000000     5.355520     1
       C      CT1      CT2       CA     9   180.000000     3.932960     2
       C      CT1      CT2       CA     9   180.000000     6.568880     3
       C      CT1      CT2      OH1     9   180.000000     2.719600     1
       C      CT1      CT2      OH1     9   180.000000     1.046000     2
       C      CT1      CT2      OH1     9   180.000000     4.895280     3
       C      CT1      CT2       CY     9   180.000000     4.560560     1
       C      CT1      CT2       CY     9   180.000000     2.092000     2
       C      CT1      CT2       CY     9   180.000000     4.895280     3
       C      CT1      CT2       OC     9     0.000000     0.836800     3
       C      CT1      CT2    OC301     9   180.000000     1.715440     1
       C      CT1      CT2    OC301     9   180.000000     1.338880     2
       C      CT1      CT2    OC301     9   180.000000     4.978960     3
       C      CT1      CT2   CG2R51     9   180.000000     0.753120     1
       C      CT1      CT2   CG2R51     9   180.000000     2.677760     2
       C      CT1      CT2   CG2R51     9   180.000000     3.640080     3
       C      CT1     CT2A       CC     9   180.000000     6.736240     1
       C      CT1     CT2A       CC     9   180.000000     5.397360     2
       C      CT1     CT2A       CC     9   180.000000     2.468560     3
       C      CT1     CT2A      CT2     9     0.000000     0.460240     1
       C      CT1     CT2A      CT2     9   180.000000     4.100320     2
       C      CT1     CT2A      CT2     9   180.000000     6.694400     3
       C      CT1     CT2A     CPH1     9   180.000000     7.322000     1
       C      CT1     CT2A     CPH1     9     0.000000     0.543920     2
       C      CT1     CT2A     CPH1     9   180.000000     7.782240     3
       C      CT1     CT2A      CT1     9     0.000000     0.460240     1
       C      CT1     CT2A      CT1     9   180.000000     4.100320     2
       C      CT1     CT2A      CT1     9   180.000000     6.694400     3
       C      CT1      CT1      CT2     9   180.000000     0.418400     1
       C      CT1      CT1      CT2     9   180.000000     2.175680     2
       C      CT1      CT1      CT2     9   180.000000     1.213360     3
       C      CT1      CT1      OH1     9   180.000000     3.305360     1
       C      CT1      CT1      OH1     9   180.000000     1.631760     2
       C      CT1      CT1      OH1     9   180.000000     4.142160     3
       C      CT1      CT1      CT3     9   180.000000     0.585760     1
       C      CT1      CT1      CT3     9   180.000000     1.087840     2
       C      CT1      CT1      CT3     9   180.000000     1.380720     3
       C      CT1      CT1    OC301     9     0.000000     4.309520     1
       C      CT1      CT1    OC301     9     0.000000     5.899440     2
       C      CT1      CT1    OC301     9     0.000000     2.761440     3
       C      CT1       CS       SS     9     0.000000     0.836800     3
       C      CT2      NH1        C     9   180.000000     0.836800     1
       C      CT2        N        C     9   180.000000     5.020800     1
       C      CT2        N        C     9   180.000000     1.924640     2
       C      CT2        N        C     9   180.000000     0.209200     3
       C      CT2        N      CT3     9     0.000000     6.276000     1
       C      CT2        N       CC     9     0.000000     1.255200     2
       C      CT2        N       CC     9   180.000000     2.092000     3
       C      CT2        N     CT2P     9   180.000000     2.594080     4
       C        N      CP1        C     9     0.000000     3.347200     3
       C        N     CPD1        C     9     0.000000     3.347200     3
       C      NH1      CT1     CT2A     9     0.000000     7.531200     1
       C      NH1      CT1    CC321     9     0.000000     7.531200     1
       C      NH1      CT1   CG2R61     9     0.000000     0.062760     1
       C      NH1      CT1   CG2R61     9     0.000000     1.246832     2
       C      NH1      CT1   CG2R61     9   180.000000     0.317984     3
       C      NH1      CT1   CG2R61     9     0.000000     0.619232     6
       C      NH1      CT1    CG301     9     0.000000     7.531200     1
       C      NH1      CT1    CG311     9     0.000000     7.531200     1
       C      NH1      CT1    CG321     9     0.000000     7.531200     1
       C      NH1      CT1    CG324     9     0.000000     7.531200     1
       C      NH1      CT1   CG3C51     9     0.000000     7.531200     1
       C      NH1      CT1    CG322     9     0.000000     7.531200     1
       C      NH1       CT     CT2A     9     0.000000     0.000000     1
       C      NH1     CTD1   CG2R61     9     0.000000     0.062760     1
       C      NH1     CTD1   CG2R61     9     0.000000     1.246832     2
       C      NH1     CTD1   CG2R61     9   180.000000     0.317984     3
       C      NH1     CTD1   CG2R61     9     0.000000     0.619232     6
       C      NH1     CTD1    CG311     9     0.000000     7.531200     1
       C      NH1     CTD1    CG321     9     0.000000     7.531200     1
       C      NH1     CTD1    CG322     9     0.000000     7.531200     1
       C      NH1     CTD1    CG324     9     0.000000     7.531200     1
       C      NH1     CTD1     CT2A     9     0.000000     7.531200     1
       C      NH1      CT2     CT2P     9     0.000000     4.016640     2
       C      NH1      CT2     CT2P     9     0.000000     0.711280     3
       C      NH1      CT2     CT2P     9     0.000000     1.715440     4
       C      NH1      CT2     CT2P     9     0.000000     1.129680     5
       C      NH1       CA       CA     9   180.000000     5.020800     2
       C      NH1       CA       CA     9   180.000000     4.184000     3
       C      NHL    CC322     HCA2     9     0.000000     0.000000     3
       C      NHL    CC322    CC312     9     0.000000     7.531200     1
       C      NHL     CTL2     HAL2     9     0.000000     0.000000     3
       C      NHL     CTL2     CTL2     9     0.000000     7.531200     1
       C      NHL     CTL1     CTO1     9     0.000000    17.070720     1
       C      NHL     CTL1     CTO1     9   180.000000     6.527040     2
       C      NHL     CTL1     CTO1     9     0.000000     7.531200     3
       C      NHL     CTL1     CTO2     9     0.000000    17.070720     1
       C      NHL     CTL1     CTO2     9   180.000000     6.527040     2
       C      NHL     CTL1     CTO2     9     0.000000     7.531200     3
       C     CTL2    CC301   CC311C     9     0.000000     0.836800     3
       C     CTL2    CC301     CTL2     9     0.000000     0.836800     3
       C     CTL2    CC301   CG2R61     9     0.000000     0.167360     3
       C       CT      NH1        C     9   180.000000     4.560560     1
       C       CT      NH1        C     9   180.000000     1.338880     2
       C       CT      NH1        C     9     0.000000     0.418400     3
       C       CT      CT3      HA3     9     0.000000     0.836800     3
       C       CT      CT2      CT2     9   180.000000     1.464400     1
       C       CT      CT2      CT2     9   180.000000     1.757280     2
       C       CT      CT2      CT2     9   180.000000     7.991440     3
       C       CT      CT2       CC     9   180.000000     5.899440     1
       C       CT      CT2       CC     9   180.000000     5.397360     2
       C       CT      CT2       CC     9   180.000000     2.468560     3
       C       CT      CT2        S     9   180.000000     1.004160     1
       C       CT      CT2        S     9   180.000000     3.138000     2
       C       CT      CT2        S     9   180.000000     5.648400     3
       C       CT      CT2     CPH1     9   180.000000     0.753120     1
       C       CT      CT2     CPH1     9   180.000000     2.677760     2
       C       CT      CT2     CPH1     9   180.000000     3.640080     3
       C       CT      CT2       CA     9   180.000000     5.355520     1
       C       CT      CT2       CA     9   180.000000     3.932960     2
       C       CT      CT2       CA     9   180.000000     6.568880     3
       C       CT      CT2      OH1     9   180.000000     2.719600     1
       C       CT      CT2      OH1     9   180.000000     1.046000     2
       C       CT      CT2      OH1     9   180.000000     4.895280     3
       C       CT      CT2       CY     9   180.000000     4.560560     1
       C       CT      CT2       CY     9   180.000000     2.092000     2
       C       CT      CT2       CY     9   180.000000     4.895280     3
       C       CT      CT2      CT1     9   180.000000     1.338880     1
       C       CT      CT2      CT1     9   180.000000     2.552240     2
       C       CT      CT2      CT1     9   180.000000     3.012480     3
       C       CT     CT2A       CC     9   180.000000     6.736240     1
       C       CT     CT2A       CC     9   180.000000     5.397360     2
       C       CT     CT2A       CC     9   180.000000     2.468560     3
       C       CT     CT2A      CT2     9     0.000000     0.460240     1
       C       CT     CT2A      CT2     9   180.000000     4.100320     2
       C       CT     CT2A      CT2     9   180.000000     6.694400     3
       C       CT     CT2A     CPH1     9   180.000000     7.322000     1
       C       CT     CT2A     CPH1     9     0.000000     0.543920     2
       C       CT     CT2A     CPH1     9   180.000000     7.782240     3
       C       CT      NH3       HC     9     0.000000     0.418400     3
       C    NG2S0   CG3C51     HGA1     9     0.000000     3.347200     3
       C    NG2S0   CG3C51   CG3C52     9     0.000000     3.347200     3
       C    NG2S0   CG3C51    CG2O1     9     0.000000     3.347200     3
       C    NG2S0   CG3C52   CG3C51     9   180.000000     0.000000     3
       C    NG2S0   CG3C52     HGA2     9   180.000000     0.000000     3
       C    NG2S0   CG3C52   CG3C52     9   180.000000     0.000000     3
       C    NG2S0    CG321     HGA2     9     0.000000     0.000000     3
       C    NG2S0    CG321    CG2O1     9   180.000000     0.836800     1
       C    NG2S0    CG321    CG311     9     0.000000     7.531200     1
       C    NG2S0    CG311     HGA1     9     0.000000     0.000000     1
       C    NG2S0    CG311    CG331     9     0.000000     7.531200     1
       C    NG2S0    CG311    CG2O1     9   180.000000     0.836800     1
       C    NG2S0    CG331     HGA3     9     0.000000     0.000000     3
       C    NG2S0   CG3C50   CG3C52     9     0.000000     3.347200     3
       C    NG2S0   CG3C50    CG2O1     9     0.000000     3.347200     3
       C    NG2S1    CG311     HGA1     9     0.000000     0.000000     1
       C    NG2S1    CG311    CG331     9     0.000000     7.531200     1
       C    NG2S1    CG311    CG321     9     0.000000     7.531200     1
       C    NG2S1    CG311    CG2O3     9   180.000000     0.836800     1
       C    NG2S1    CG311    CG2O1     9   180.000000     0.836800     1
       C    NG2S1    CG311    CG311     9     0.000000     7.531200     1
       C    NG2S1    CG331     HGA3     9     0.000000     0.000000     3
       C    NG2S1    CG321     HGA2     9     0.000000     0.000000     3
       C    NG2S1    CG321   CG2R53     9     0.000000     0.062760     1
       C    NG2S1    CG321   CG2R53     9     0.000000     1.246832     2
       C    NG2S1    CG321   CG2R53     9   180.000000     0.317984     3
       C    NG2S1    CG321   CG2R53     9     0.000000     2.589896     4
       C    NG2S1    CG321   CG2R53     9     0.000000     0.619232     6
       C    NG2S1    CG321    CG2O1     9   180.000000     0.836800     1
       C    NG2S1   CG3C51   CG2R53     9     0.000000     3.491966     3
       C    NG2S1   CG3C51   CG3C52     9     0.000000     6.837493     3
       C    NG2S1   CG3C51     HGA1     9   180.000000     8.529921     3
       C    NG2D1   CG2DC1   CG2R53     9     0.000000    24.888942     1
       C    NG2D1   CG2DC1   CG2R53     9   180.000000    27.708122     2
       C    NG2D1   CG2DC1    CG321     9     0.000000    24.888942     1
       C    NG2D1   CG2DC1    CG321     9   180.000000    27.708122     2
       C    NG2D1   CG2DC1    CG331     9     0.000000    24.888942     1
       C    NG2D1   CG2DC1    CG331     9   180.000000    27.708122     2
       C     CTD1      NH1        C     9   180.000000     0.836800     1
       C     CTD1      CT2      CT2     9   180.000000     1.464400     1
       C     CTD1      CT2      CT2     9   180.000000     1.757280     2
       C     CTD1      CT2      CT2     9   180.000000     7.991440     3
       C     CTD1      CT2       CC     9   180.000000     5.899440     1
       C     CTD1      CT2       CC     9   180.000000     5.397360     2
       C     CTD1      CT2       CC     9   180.000000     2.468560     3
       C     CTD1      CT2        S     9   180.000000     1.004160     1
       C     CTD1      CT2        S     9   180.000000     3.138000     2
       C     CTD1      CT2        S     9   180.000000     5.648400     3
       C     CTD1      CT2     CPH1     9   180.000000     0.753120     1
       C     CTD1      CT2     CPH1     9   180.000000     2.677760     2
       C     CTD1      CT2     CPH1     9   180.000000     3.640080     3
       C     CTD1      CT2      CT1     9   180.000000     1.338880     1
       C     CTD1      CT2      CT1     9   180.000000     2.552240     2
       C     CTD1      CT2      CT1     9   180.000000     3.012480     3
       C     CTD1      CT2       CA     9   180.000000     5.355520     1
       C     CTD1      CT2       CA     9   180.000000     3.932960     2
       C     CTD1      CT2       CA     9   180.000000     6.568880     3
       C     CTD1      CT2      OH1     9   180.000000     2.719600     1
       C     CTD1      CT2      OH1     9   180.000000     1.046000     2
       C     CTD1      CT2      OH1     9   180.000000     4.895280     3
       C     CTD1      CT2       CY     9   180.000000     4.560560     1
       C     CTD1      CT2       CY     9   180.000000     2.092000     2
       C     CTD1      CT2       CY     9   180.000000     4.895280     3
       C     CTD1     CT2A      CT2     9     0.000000     0.460240     1
       C     CTD1     CT2A      CT2     9   180.000000     4.100320     2
       C     CTD1     CT2A      CT2     9   180.000000     6.694400     3
       C     CTD1     CT2A     CPH1     9   180.000000     7.322000     1
       C     CTD1     CT2A     CPH1     9     0.000000     0.543920     2
       C     CTD1     CT2A     CPH1     9   180.000000     7.782240     3
       C     CTD1      CT1      CT2     9   180.000000     0.418400     1
       C     CTD1      CT1      CT2     9   180.000000     2.175680     2
       C     CTD1      CT1      CT2     9   180.000000     1.213360     3
       C     CTD1      CT1      OH1     9   180.000000     3.305360     1
       C     CTD1      CT1      OH1     9   180.000000     1.631760     2
       C     CTD1      CT1      OH1     9   180.000000     4.142160     3
       C     CTD1      CT1      CT3     9   180.000000     0.585760     1
       C     CTD1      CT1      CT3     9   180.000000     1.087840     2
       C     CTD1      CT1      CT3     9   180.000000     1.380720     3
       C     CC1A     CC1A      CT3     9   180.000000     2.343040     1
       C     CC1A     CC1A      CT3     9   180.000000    29.288000     2
       C     CTL1      OH1        H     9     0.000000     1.464400     1
       C     CTL1      OH1        H     9     0.000000     1.548080     2
       C     CTL1      OH1        H     9   180.000000     0.794960     3
       C     CTL1     CEL3     HEL1     9     0.000000     0.000000     3
       C     CTL1     CEL3     CEL3     9   180.000000     2.092000     1
       C     CTL1     CEL3     CEL3     9   180.000000     5.439200     3
     CE1      CE1      CT3      HA3     9     0.000000     0.125520     3
     CE1      CE1      CT3       HA     9     0.000000     0.125520     3
     CE1      CE1      CT2      HA2     9     0.000000     0.502080     3
     CE2      CE1      CT2      CT3     9   180.000000     2.092000     1
     CE2      CE1      CT2      CT3     9   180.000000     5.439200     3
     CE2      CE1      CT2      HA2     9     0.000000     0.502080     3
     CE2      CE1      CT2       HA     9     0.000000     0.502080     3
     CE2      CE1      CT3      HA3     9   180.000000     0.209200     3
     CE2      CE1      CT3       HA     9   180.000000     0.209200     3
     CP1        C        N      CP1     9   180.000000    11.506000     2
     CP1        C        N      CP1     9     0.000000     1.255200     4
     CP1        C        N     CPD1     9   180.000000    11.506000     2
     CP1        C        N     CPD1     9     0.000000     1.255200     4
     CP1        C    NG2D1   CG2DC1     9     0.000000     6.694400     1
     CP1        C    NG2D1   CG2DC1     9   180.000000    10.460000     2
     CP1        C    NG2S0    CG311     9     0.000000     6.694400     1
     CP1        C    NG2S0    CG311     9   180.000000    10.460000     2
     CP1        C    NG2S0    CG321     9     0.000000     6.694400     1
     CP1        C    NG2S0    CG321     9   180.000000    10.460000     2
     CP1        C    NG2S0    CG331     9     0.000000     6.694400     1
     CP1        C    NG2S0    CG331     9   180.000000    10.460000     2
     CP1        C    NG2S0   CG3C50     9     0.000000     6.694400     1
     CP1        C    NG2S0   CG3C50     9   180.000000    10.460000     2
     CP1        C    NG2S0   CG3C51     9     0.000000     6.694400     1
     CP1        C    NG2S0   CG3C51     9   180.000000    10.460000     2
     CP1        C    NG2S0   CG3C52     9     0.000000     6.694400     1
     CP1        C    NG2S0   CG3C52     9   180.000000    10.460000     2
     CP1        C    NG2S1   CG2D1O     9     0.000000     6.694400     1
     CP1        C    NG2S1   CG2D1O     9   180.000000    10.460000     2
     CP1        C    NG2S1    CG311     9     0.000000     6.694400     1
     CP1        C    NG2S1    CG311     9   180.000000    10.460000     2
     CP1        C    NG2S1    CG321     9     0.000000     6.694400     1
     CP1        C    NG2S1    CG321     9   180.000000    10.460000     2
     CP1        C    NG2S1   CG3C51     9     0.000000     6.694400     1
     CP1        C    NG2S1   CG3C51     9   180.000000    10.460000     2
     CP1        C    NG2S1     HGP1     9   180.000000    10.460000     2
     CP1      CP2      CP2      OH1     9     0.000000     4.100320     1
     CP1      CP2      CP2      OH1     9   180.000000     4.058480     2
     CP1      CP2      CP2      OH1     9   180.000000     0.251040     3
     CP2      CP1        N        C     9     0.000000     3.347200     3
     CP2      CP3        N        C     9   180.000000     0.000000     3
     CP2      CP3        N      CP1     9     0.000000     0.418400     3
     CP2      CP3        N     CPD1     9     0.000000     0.418400     3
     CP2      CP3       NP      CP1     9     0.000000     0.334720     3
     CP2      CP3       NP     CPD1     9     0.000000     0.334720     3
     CP2      CP2      OH1        H     9     0.000000     4.267680     1
     CP2      CP2      OH1        H     9   180.000000     1.799120     2
     CP2      CP2      OH1        H     9     0.000000     3.556400     3
     CP2     CPD1        N        C     9     0.000000     3.347200     3
     CP3        N        C      CP1     9   180.000000    11.506000     2
     CP3        N        C      CP1     9     0.000000     1.255200     4
     CP3        N        C     CPD1     9   180.000000    11.506000     2
     CP3        N        C     CPD1     9     0.000000     1.255200     4
     CP3        N      CP1        C     9     0.000000     0.418400     3
     CP3        N      CP1       CC     9     0.000000     0.418400     3
     CP3        N      CP1      CP2     9     0.000000     0.418400     3
     CP3        N      CP1       CD     9     0.000000     0.334720     3
     CP3        N     CPD1        C     9     0.000000     0.418400     3
     CP3        N     CPD1       CC     9     0.000000     0.418400     3
     CP3        N     CPD1      CP2     9     0.000000     0.418400     3
     CP3       NP      CP1        C     9     0.000000     0.334720     3
     CP3       NP      CP1       CC     9     0.000000     0.334720     3
     CP3       NP      CP1       CD     9     0.000000     0.334720     3
     CP3       NP      CP1      CP2     9     0.000000     0.334720     3
     CP3       NP     CPD1        C     9     0.000000     0.334720     3
     CP3       NP     CPD1       CC     9     0.000000     0.334720     3
     CP3       NP     CPD1       CD     9     0.000000     0.334720     3
     CP3       NP     CPD1      CP2     9     0.000000     0.334720     3
     CP3      CP2      OH1        H     9     0.000000     2.384880     1
     CP3      CP2      OH1        H     9   180.000000     0.627600     2
     CP3      CP2      OH1        H     9   180.000000     0.460240     3
    CPH2      NR1     CPH1     CPH1     9   180.000000    58.576000     2
    CPH2      NR1      CT3      HA3     9     0.000000     0.819646     3
    CPH2      NR2     CPH1     CPH1     9   180.000000    58.576000     2
    CPH2      NR3     CPH1     CPH1     9   180.000000    50.208000     2
    CPH2      NR3      CT3      HA3     9     0.000000     0.819646     3
     HA1       CC      NH2        H     9   180.000000     5.857600     2
     HA1      CT1      CT2       CA     9     0.000000     0.167360     3
     HA1      CT1      CT2      HA2     9     0.000000     0.836800     3
     HA1      CT1      CT2      CT3     9     0.000000     0.836800     3
     HA1      CT1      CT1        C     9     0.000000     0.836800     3
     HA1      CT1      CT3      HA3     9     0.000000     0.836800     3
     HA1      CT1      OH1        H     9     0.000000     0.585760     3
     HA1      CT1      ON2        P     9     0.000000     0.000000     3
     HA1      CT1    OC301   CC3162     9     0.000000     1.188256     3
     HA1      CT1     CTD1        C     9     0.000000     0.836800     3
     HA1      CT1     CT2A      CT1     9     0.000000     0.836800     3
     HA1      CT1     CT2A      HA2     9     0.000000     0.836800     3
     HA1      CP2      OH1        H     9     0.000000     0.585760     3
     HE1      CE1      CE1      HE1     9   180.000000     4.184000     2
     HE1      CE1      CE2      HE2     9   180.000000    21.756800     2
     HE1      CE1      CT2      HA2     9     0.000000     0.000000     3
     HE1      CE1      CT2      CT3     9     0.000000     0.502080     3
     HE1      CE1      CT2       HA     9     0.000000     0.000000     3
     HE1      CE1      CT3      HA3     9     0.000000     0.000000     3
     HE1      CE1      CT3       HA     9     0.000000     0.000000     3
     HE1     CC1A      CT2      CT2     9     0.000000     0.502080     3
     HE1     CC1A      CT2      OH1     9     0.000000     0.836800     3
     HE1     CC1A      CT2      HA2     9     0.000000     0.836800     3
     HE1     CC1A     CC1A      HE1     9   180.000000    21.756800     2
     HE1     CC1A     CC1A     CC1B     9   180.000000     4.184000     2
     HE1     CC1A      CT3      HA3     9     0.000000     1.255200     3
     HE1     CC1A     CC1B      CC2     9   180.000000     4.184000     2
     HE1     CC1A     CC1B     CC1B     9   180.000000     4.184000     2
     HE1     CC1A      CC2      HE2     9   180.000000    21.756800     2
     HE1     CC1A        C      NH1     9   180.000000     1.255200     3
     HE1     CC1A        C        O     9   180.000000     1.255200     3
     HE1     CC1A       CD        O     9   180.000000     0.000000     2
     HE1     CC1A       CD      HR1     9   180.000000     0.000000     2
     HE1     CC1A       CC       OC     9   180.000000     0.000000     2
     HE1     CC1B      CT3      HA3     9     0.000000     1.255200     3
     HE1     CC1B     CC1B     CC1A     9   180.000000    21.756800     2
     HE1     CC1B     CC1B      HE1     9   180.000000     0.000000     2
     HE1     CC1B     CC1A      HE1     9   180.000000     0.000000     2
     HE1     CC1B      CC2      HE2     9   180.000000    21.756800     2
     HE2      CE2      CE1      CT2     9   180.000000    21.756800     2
     HE2      CE2      CE1      CPB     9   180.000000    21.756800     2
     HE2      CC2     CC1A     CC1B     9   180.000000    20.920000     2
     HE2      CC2     CC1A      CT2     9   180.000000    21.756800     2
     HE2      CC2     CC1A       CD     9   180.000000    13.388800     2
     HE2      CC2     CC1A       CC     9   180.000000    17.572800     2
     HE2      CC2     CC1B     CC1A     9   180.000000    20.920000     2
     HB1      CP1        N        C     9     0.000000     3.347200     3
     HB1      CP1        N      CP3     9     0.000000     0.418400     3
     HB1      CP1       NP      CP3     9     0.000000     0.334720     3
     HB1      CT1      NH1        C     9     0.000000     0.000000     1
     HB1      CT1      NH1        H     9     0.000000     0.000000     1
     HB1      CT1      CT1      HA1     9     0.000000     0.836800     3
     HB1      CT1      CT1      CT3     9     0.000000     0.836800     3
     HB1      CT1      CT1      CT2     9     0.000000     0.836800     3
     HB1      CT1      CT1      OH1     9     0.000000     0.836800     3
     HB1      CT1      CT2      HA2     9     0.000000     0.836800     3
     HB1      CT1      CT2      OH1     9     0.000000     0.836800     3
     HB1      CT1      CT2      CT2     9     0.000000     0.836800     3
     HB1      CT1      CT2        S     9     0.000000     0.836800     3
     HB1      CT1      CT2       CC     9     0.000000     0.836800     3
     HB1      CT1      CT2       CY     9     0.000000     0.836800     3
     HB1      CT1      CT2     CPH1     9     0.000000     0.836800     3
     HB1      CT1      CT2      CT1     9     0.000000     0.836800     3
     HB1      CT1      CT2       CA     9     0.000000     0.836800     3
     HB1      CT1      CT2       OC     9     0.000000     0.836800     3
     HB1      CT1      CT2   CG2R51     9     0.000000     0.836800     3
     HB1      CT1     CT2A      HA2     9     0.000000     0.836800     3
     HB1      CT1     CT2A      CT2     9     0.000000     0.836800     3
     HB1      CT1     CT2A     CPH1     9     0.000000     0.836800     3
     HB1      CT1     CT2A       CC     9     0.000000     0.836800     3
     HB1      CT1     CT2A      CT1     9     0.000000     0.836800     3
     HB1      CT1       CS      HA2     9     0.000000     0.836800     3
     HB1      CT1       CS       SS     9     0.000000     0.836800     3
     HB1      CT1    CC321     HCA2     9     0.000000     0.836800     3
     HB1      CT1    CC321    CC2O1     9     0.000000     0.836800     3
     HB1      CT1        C    NG2S0     9     0.000000     0.000000     1
     HB1      CT1        C    NG2S1     9     0.000000     0.000000     1
     HB1      CT1    CG2D1    CG2D2     9     0.000000     0.502080     3
     HB1      CT1    CG2D1     HGA4     9     0.000000     0.000000     3
     HB1      CT1   CG2R51   CG2R51     9     0.000000     0.000000     3
     HB1      CT1   CG2R53   NG2R50     9     0.000000     0.794960     3
     HB1      CT1   CG2R53   NG2R51     9     0.000000     0.794960     3
     HB1      CT1   CG2R61   CG2R61     9   180.000000     0.418400     6
     HB1      CT1   CG2R61   CG2R66     9   180.000000     0.418400     6
     HB1      CT1    CG301    CG2O3     9     0.000000     0.836800     3
     HB1      CT1    CG301    CG311     9     0.000000     0.815880     3
     HB1      CT1    CG301    CG321     9     0.000000     0.815880     3
     HB1      CT1    CG301    CG331     9     0.000000     0.815880     3
     HB1      CT1    CG301    OG311     9     0.000000     0.815880     3
     HB1      CT1    CG311    CG2O1     9     0.000000     0.836800     3
     HB1      CT1    CG311    CG2O3     9     0.000000     0.836800     3
     HB1      CT1    CG311    CG2O4     9     0.000000     0.836800     3
     HB1      CT1    CG311   CG2R51     9     0.000000     0.836800     3
     HB1      CT1    CG311   CG2R61     9     0.000000     0.000000     3
     HB1      CT1    CG311    CG311     9     0.000000     0.815880     3
     HB1      CT1    CG311    CG321     9     0.000000     0.815880     3
     HB1      CT1    CG311    CG331     9     0.000000     0.815880     3
     HB1      CT1    CG311     HGA1     9     0.000000     0.815880     3
     HB1      CT1    CG311    OG301     9     0.000000     0.815880     3
     HB1      CT1    CG311    OG303     9     0.000000     0.815880     3
     HB1      CT1    CG311    OG311     9     0.000000     0.815880     3
     HB1      CT1    CG311    SG311     9     0.000000     0.815880     3
     HB1      CT1    CG321    CG2D1     9     0.000000     0.836800     3
     HB1      CT1    CG321   CG2DC1     9     0.000000     0.836800     3
     HB1      CT1    CG321    CG2O1     9     0.000000     0.836800     3
     HB1      CT1    CG321    CG2O2     9     0.000000     0.836800     3
     HB1      CT1    CG321    CG2O3     9     0.000000     0.836800     3
     HB1      CT1    CG321    CG2O4     9     0.000000     0.836800     3
     HB1      CT1    CG321    CG2O5     9     0.000000     0.836800     3
     HB1      CT1    CG321   CG2R51     9     0.000000     0.836800     3
     HB1      CT1    CG321   CG2R61     9     0.000000     0.167360     3
     HB1      CT1    CG321    CG301     9     0.000000     0.815880     3
     HB1      CT1    CG321    CG311     9     0.000000     0.815880     3
     HB1      CT1    CG321    CG321     9     0.000000     0.815880     3
     HB1      CT1    CG321    CG324     9     0.000000     0.815880     3
     HB1      CT1    CG321    CG331     9     0.000000     0.836800     3
     HB1      CT1    CG321   CG3C51     9     0.000000     2.092000     3
     HB1      CT1    CG321     HGA2     9     0.000000     0.815880     3
     HB1      CT1    CG321    NG2S1     9     0.000000     0.836800     3
     HB1      CT1    CG321    OG302     9     0.000000     0.815880     3
     HB1      CT1    CG321    OG303     9     0.000000     0.815880     3
     HB1      CT1    CG321    SG301     9     0.000000     0.815880     3
     HB1      CT1    CG321    SG311     9     0.000000     0.815880     3
     HB1      CT1    CG321    SG3O1     9     0.000000     0.041840     1
     HB1      CT1    CG321    SG3O2     9     0.000000     0.041840     1
     HB1      CT1    CG324     HGA2     9     0.000000     0.815880     3
     HB1      CT1    CG324    NG2P1     9     0.000000     0.815880     3
     HB1      CT1    CG324    NG3P3     9     0.000000     0.815880     3
     HB1      CT1   CG3C51   CG3C52     9     0.000000     0.669440     3
     HB1      CT1   CG3C51     HGA1     9     0.000000     0.669440     3
     HB1      CT1    CG322    CG331     9     0.000000     0.836800     3
     HB1      CT1    CG322     FGA1     9     0.000000     0.774040     3
     HB1     CTD1   CG2R51   CG2R51     9     0.000000     0.000000     3
     HB1     CTD1   CG2R61   CG2R61     9   180.000000     0.418400     6
     HB1     CTD1   CG2R61   CG2R66     9   180.000000     0.418400     6
     HB1     CTD1    CG311   CG2R61     9     0.000000     0.000000     3
     HB1     CTD1    CG311    CG311     9     0.000000     0.815880     3
     HB1     CTD1    CG311    CG321     9     0.000000     0.815880     3
     HB1     CTD1    CG311    CG331     9     0.000000     0.815880     3
     HB1     CTD1    CG311     HGA1     9     0.000000     0.815880     3
     HB1     CTD1    CG321   CG2DC1     9     0.000000     0.836800     3
     HB1     CTD1    CG321   CG2R51     9     0.000000     0.836800     3
     HB1     CTD1    CG321   CG2R61     9     0.000000     0.167360     3
     HB1     CTD1    CG321    CG311     9     0.000000     0.815880     3
     HB1     CTD1    CG321    CG321     9     0.000000     0.815880     3
     HB1     CTD1    CG321    CG324     9     0.000000     0.815880     3
     HB1     CTD1    CG321   CG3C51     9     0.000000     2.092000     3
     HB1     CTD1    CG321     HGA2     9     0.000000     0.815880     3
     HB1     CTD1    CG322    CG331     9     0.000000     0.836800     3
     HB1     CTD1    CG322     FGA1     9     0.000000     0.774040     3
     HB1     CTD1    CG324     HGA2     9     0.000000     0.815880     3
     HB1     CTD1    CG324    NG2P1     9     0.000000     0.815880     3
     HB1     CTD1      NH1        C     9     0.000000     0.000000     1
     HB1     CTD1      NH1        H     9     0.000000     0.000000     1
     HB1     CTD1      CT1      HA1     9     0.000000     0.836800     3
     HB1     CTD1      CT1      CT3     9     0.000000     0.836800     3
     HB1     CTD1      CT1      CT2     9     0.000000     0.836800     3
     HB1     CTD1      CT1      OH1     9     0.000000     0.836800     3
     HB1     CTD1      CT2      HA2     9     0.000000     0.836800     3
     HB1     CTD1      CT2      OH1     9     0.000000     0.836800     3
     HB1     CTD1      CT2      CT2     9     0.000000     0.836800     3
     HB1     CTD1      CT2        S     9     0.000000     0.836800     3
     HB1     CTD1      CT2       CC     9     0.000000     0.836800     3
     HB1     CTD1      CT2       CY     9     0.000000     0.836800     3
     HB1     CTD1      CT2     CPH1     9     0.000000     0.836800     3
     HB1     CTD1      CT2      CT1     9     0.000000     0.836800     3
     HB1     CTD1      CT2       CA     9     0.000000     0.836800     3
     HB1     CTD1     CT2A      HA2     9     0.000000     0.836800     3
     HB1     CTD1     CT2A      CT2     9     0.000000     0.836800     3
     HB1     CTD1     CT2A     CPH1     9     0.000000     0.836800     3
     HB1     CPD1        N        C     9     0.000000     3.347200     3
     HB1     CPD1        N      CP3     9     0.000000     0.418400     3
     HB1     CPD1       NP      CP3     9     0.000000     0.334720     3
     HB2      CT2      NH1        C     9     0.000000     0.000000     1
     HB2      CT2      NH1        H     9     0.000000     0.000000     1
     HB2      CT2        N        C     9     0.000000     0.000000     3
     HB2      CT2        N      CT3     9     0.000000     1.757280     3
     HB2      CT2        C    NG2D1     9     0.000000     0.000000     1
     HB2      CT2        C    NG2S0     9     0.000000     0.000000     1
     HB2      CT2        C    NG2S1     9     0.000000     0.000000     1
     HB2      CT2       CC        O     9   180.000000     0.000000     3
     HB2      CT2       CC        N     9     0.000000     0.000000     3
     HB2     CT2P      CT2      NH1     9     0.000000     0.627600     3
     HB2     CT2P      CT2      HB2     9     0.000000     0.418400     3
     HB2       C3       C3      HB2     9   180.000000     0.836800     5
      HC      NH2      CT2      HB2     9     0.000000     0.460240     3
      HC      NH2      CT2       CD     9     0.000000     0.460240     3
      HC      NH2      CT2      CT2     9     0.000000     0.460240     3
      HC      NH2      CT2      HA2     9     0.000000     0.460240     3
      HC      NH2      CT2       HA     9     0.000000     0.460240     3
      HC      NH2      CT2       HB     9     0.000000     0.460240     3
      HC       NP      CP1        C     9     0.000000     0.334720     3
      HC       NP      CP1       CC     9     0.000000     0.334720     3
      HC       NP      CP1       CD     9     0.000000     0.334720     3
      HC       NP      CP1      CP2     9     0.000000     0.334720     3
      HC       NP      CP1      HB1     9     0.000000     0.334720     3
      HC       NP      CP1       HB     9     0.000000     0.334720     3
      HC       NP      CP3      CP2     9     0.000000     0.334720     3
      HC       NP      CP3      HA2     9     0.000000     0.334720     3
      HC       NP      CP3       HA     9     0.000000     0.334720     3
      HC       NP     CPD1        C     9     0.000000     0.334720     3
      HC       NP     CPD1       CC     9     0.000000     0.334720     3
      HC       NP     CPD1       CD     9     0.000000     0.334720     3
      HC       NP     CPD1      CP2     9     0.000000     0.334720     3
      HC       NP     CPD1      HB1     9     0.000000     0.334720     3
      HC      NS2     CC1B      HR1     9   180.000000    20.920000     2
      HC      NS2     CC1B      CT3     9   180.000000    20.920000     2
      HC      NS2     CC1B     CC1A     9   180.000000    20.920000     2
     HR1     CPH1     CPH1      CT2     9   180.000000     4.184000     2
     HR1     CPH1     CPH1      CT3     9   180.000000     4.184000     2
     HR1     CPH1     CPH1      HR1     9   180.000000     4.184000     2
     HR1     CPH1      NR3     CPH2     9   180.000000    10.460000     2
     HR1     CPH1      NR3        H     9   180.000000    12.552000     2
     HR1     CPH2      NR1     CPH1     9   180.000000    12.552000     2
     HR1     CPH2      NR1        H     9   180.000000     4.184000     2
     HR1     CPH2      NR2     CPH1     9   180.000000    12.552000     2
     HR1     CC1B      CT3      HA3     9     0.000000     0.627600     3
     HR1     CC1B     CC1A      HE1     9   180.000000     0.000000     2
     HR1     CC1B     CC1A      CC2     9   180.000000     4.184000     2
     HR1     CC1B     CC1A     CC1A     9   180.000000     4.184000     2
     HR2     CPH2      NR3     CPH1     9   180.000000    12.552000     2
     HR2     CPH2      NR3        H     9   180.000000     0.000000     2
     HR3     CPH1     CPH1      CT2     9   180.000000     8.368000     2
     HR3     CPH1     CPH1      CT3     9   180.000000     8.368000     2
     HR3     CPH1     CPH1      HR3     9   180.000000     8.368000     2
     HR3     CPH1      NR1     CPH2     9   180.000000    12.552000     2
     HR3     CPH1      NR1        H     9   180.000000     4.184000     2
     HR3     CPH1      NR2     CPH2     9   180.000000    12.552000     2
     HR3     CPH1      NR2       ZN     9     0.000000     0.000000     3
      HS        S      CT2      CT3     9     0.000000     1.004160     1
      HS        S      CT2      CT3     9     0.000000     0.627600     2
      HS        S      CT2      CT3     9     0.000000     1.129680     3
      HS        S      CT2      HA2     9     0.000000     0.836800     3
      HS        S      CT2       HA     9     0.000000     0.836800     3
      HS        S      CT3      HA3     9     0.000000     0.836800     3
      HS        S      CT3       HA     9     0.000000     0.836800     3
       N        C      CP1      CP2     9     0.000000     1.673600     1
       N        C      CP1      CP2     9     0.000000     2.510400     2
       N        C      CP1      HB1     9   180.000000     1.673600     1
       N        C      CP1      HB1     9     0.000000     2.510400     2
       N        C      CP1        N     9     0.000000     1.255200     1
       N        C      CP1        N     9     0.000000    -1.255200     4
       N        C      CP1       HB     9   180.000000     1.673600     1
       N        C      CP1       HB     9     0.000000     2.510400     2
       N        C      CT1      CT1     9     0.000000     0.000000     1
       N        C      CT1      CT2     9     0.000000     0.000000     1
       N        C      CT1      CT3     9     0.000000     0.000000     1
       N        C      CT1      HB1     9     0.000000     0.000000     1
       N        C      CT1       CS     9     0.000000     0.000000     1
       N        C      CT1       HB     9     0.000000     0.000000     1
       N        C      CT1     CTD1     9     0.000000     0.000000     1
       N        C      CT2      HB2     9     0.000000     0.000000     1
       N        C      CT2       HB     9     0.000000     0.000000     1
       N        C      CT2        N     9   180.000000     0.460240     1
       N        C      CT2        N     9   180.000000     3.974800     2
       N        C      CT2        N     9   180.000000     1.213360     3
       N        C      CT3      HA3     9     0.000000     0.000000     1
       N        C      CT3       HA     9     0.000000     0.000000     1
       N        C       CT      CT2     9     0.000000     0.000000     1
       N        C       CT      CT3     9     0.000000     0.000000     1
       N        C       CT      NH1     9   180.000000     0.669440     1
       N        C       CT      NH1     9   180.000000     4.476880     2
       N        C       CT      NH1     9   180.000000     1.046000     3
       N        C     CTD1      CT1     9     0.000000     0.000000     1
       N        C     CTD1      CT2     9     0.000000     0.000000     1
       N        C     CTD1      CT3     9     0.000000     0.000000     1
       N        C     CTD1      HB1     9     0.000000     0.000000     1
       N        C     CPD1      CP2     9     0.000000     1.673600     1
       N        C     CPD1      CP2     9     0.000000     2.510400     2
       N        C     CPD1      HB1     9   180.000000     1.673600     1
       N        C     CPD1      HB1     9     0.000000     2.510400     2
       N        C     CPD1        N     9     0.000000     1.255200     1
       N        C     CPD1        N     9     0.000000    -1.255200     4
       N      CT1      CT2       CA     9     0.000000     0.167360     3
       N      CP3      CP2      OH1     9   180.000000     8.409840     1
       N      CP3      CP2      OH1     9     0.000000    10.711040     2
       N      CP3      CP2      OH1     9     0.000000     9.999760     3
       N     CT2P      CT2      NH1     9   180.000000     6.652560     1
       N     CT2P      CT2      NH1     9     0.000000     3.012480     3
       N     CT2P      CT2      NH1     9     0.000000     0.125520     4
       N     CT2P      CT2      HB2     9     0.000000     0.627600     3
       N      CT2        C      NH1     9     0.000000     2.845120     1
       N      CT2        C      NH1     9     0.000000     2.970640     2
       N      CT2        C      NH1     9     0.000000     1.380720     3
       N     CTD1      CT2       CA     9     0.000000     0.167360     3
     NH1        C      CP1      CP2     9     0.000000     1.673600     1
     NH1        C      CP1      CP2     9     0.000000     2.510400     2
     NH1        C      CP1      HB1     9   180.000000     1.673600     1
     NH1        C      CP1      HB1     9     0.000000     2.510400     2
     NH1        C      CP1        N     9     0.000000     1.255200     1
     NH1        C      CP1        N     9     0.000000    -1.255200     4
     NH1        C      CP1       HB     9   180.000000     1.673600     1
     NH1        C      CP1       HB     9     0.000000     2.510400     2
     NH1        C      CT1      CT1     9     0.000000     0.000000     1
     NH1        C      CT1      CT2     9     0.000000     0.000000     1
     NH1        C      CT1      CT3     9     0.000000     0.000000     1
     NH1        C      CT1      HB1     9     0.000000     0.000000     1
     NH1        C      CT1      NH1     9     0.000000     2.510400     1
     NH1        C      CT1       CS     9     0.000000     0.000000     1
     NH1        C      CT1       HB     9     0.000000     0.000000     1
     NH1        C      CT1    CG2D1     9     0.000000     0.000000     1
     NH1        C      CT1   CG2R51     9     0.000000     2.510400     1
     NH1        C      CT1   CG2R61     9     0.000000     0.000000     1
     NH1        C      CT1   CG2R61     9   180.000000     3.168543     2
     NH1        C      CT1   CG2R61     9     0.000000    12.935673     3
     NH1        C      CT1     CTD1     9     0.000000     0.000000     1
     NH1        C      CT2      CT2     9     0.000000     0.000000     1
     NH1        C      CT2      HA2     9     0.000000     0.000000     3
     NH1        C      CT2      HB2     9     0.000000     0.000000     1
     NH1        C      CT2      NH1     9     0.000000     2.510400     1
     NH1        C      CT2       HA     9     0.000000     0.000000     3
     NH1        C      CT2       HB     9     0.000000     0.000000     1
     NH1        C      CT3      HA3     9     0.000000     0.000000     3
     NH1        C      CT3       HA     9     0.000000     0.000000     3
     NH1        C       CT      NH1     9     0.000000     0.167360     1
     NH1        C       CT      NH1     9   180.000000     4.476880     2
     NH1        C       CT      NH1     9   180.000000     1.046000     3
     NH1        C       CT      CT3     9     0.000000     0.000000     1
     NH1        C       CT      CT2     9     0.000000     0.000000     1
     NH1        C     CTD1   CG2R51     9     0.000000     2.510400     1
     NH1        C     CTD1   CG2R61     9     0.000000     0.000000     1
     NH1        C     CTD1   CG2R61     9   180.000000     3.168543     2
     NH1        C     CTD1   CG2R61     9     0.000000    12.935673     3
     NH1        C     CTD1      CT1     9     0.000000     0.000000     1
     NH1        C     CTD1      CT2     9     0.000000     0.000000     1
     NH1        C     CTD1      CT3     9     0.000000     0.000000     1
     NH1        C     CTD1      HB1     9     0.000000     0.000000     1
     NH1        C     CTD1      NH1     9     0.000000     2.510400     1
     NH1        C     CPD1      CP2     9     0.000000     1.673600     1
     NH1        C     CPD1      CP2     9     0.000000     2.510400     2
     NH1        C     CPD1      HB1     9   180.000000     1.673600     1
     NH1        C     CPD1      HB1     9     0.000000     2.510400     2
     NH1        C     CPD1        N     9     0.000000     1.255200     1
     NH1        C     CPD1        N     9     0.000000    -1.255200     4
     NH1        C     CC1A     CC1A     9     0.000000     2.928800     1
     NH1        C     CC1A     CC1A     9   180.000000     5.020800     2
     NH1        C     CC1A     CC1A     9     0.000000     0.418400     3
     NH1        C     CC1A     CC1A     9     0.000000     0.627600     4
     NH1        C     CTL2     HAL2     9     0.000000     0.000000     3
     NH1        C     CTL2     CTL2     9     0.000000     8.326160     1
     NH1        C     CTL2     CTL2     9   180.000000     2.677760     2
     NH1        C     CTL2     CTL2     9   180.000000     1.171520     3
     NH1      CT1        C        N     9     0.000000     1.673600     1
     NH1      CT1      CT1      HA1     9     0.000000     0.836800     3
     NH1      CT1      CT1      OH1     9     0.000000     0.376560     1
     NH1      CT1      CT1      OH1     9   180.000000     0.794960     2
     NH1      CT1      CT1      OH1     9     0.000000     0.711280     3
     NH1      CT1      CT1    OC301     9     0.000000     1.966480     1
     NH1      CT1      CT1    OC301     9     0.000000     6.694400     2
     NH1      CT1      CT1    OC301     9   180.000000     1.631760     3
     NH1      CT1      CT2      HA2     9     0.000000     0.836800     3
     NH1      CT1      CT2        S     9     0.000000     1.422560     1
     NH1      CT1      CT2        S     9   180.000000     2.092000     2
     NH1      CT1      CT2        S     9     0.000000     5.983120     3
     NH1      CT1      CT2      OH1     9   180.000000     0.753120     1
     NH1      CT1      CT2      OH1     9   180.000000     0.794960     2
     NH1      CT1      CT2      OH1     9     0.000000     6.108640     3
     NH1      CT1      CT2       OC     9     0.000000     0.836800     3
     NH1      CT1      CT2    OC301     9   180.000000     1.757280     1
     NH1      CT1      CT2    OC301     9   180.000000     2.845120     2
     NH1      CT1      CT2    OC301     9     0.000000     4.435040     3
     NH1      CT1     CT2A      HA2     9     0.000000     0.836800     3
     NH1      CT1       CS      HA2     9     0.000000     0.836800     3
     NH1      CT1       CS       SS     9     0.000000     0.836800     3
     NH1      CT1    CC321     HCA2     9     0.000000     0.836800     3
     NH1      CT1    CC321    CC2O1     9     0.000000     0.836800     3
     NH1      CT1   CG2R61   CG2R61     9     0.000000     0.497896     2
     NH1      CT1   CG2R61   CG2R61     9   180.000000     0.054392     6
     NH1      CT1   CG2R61   CG2R66     9     0.000000     0.497896     2
     NH1      CT1   CG2R61   CG2R66     9   180.000000     0.552288     4
     NH1      CT1   CG2R61   CG2R66     9   180.000000     0.054392     6
     NH1      CT1    CG301    CG311     9     0.000000     0.836800     3
     NH1      CT1    CG301    CG321     9     0.000000     0.836800     3
     NH1      CT1    CG301    CG331     9     0.000000     0.836800     3
     NH1      CT1    CG301    OG311     9     0.000000     0.836800     3
     NH1      CT1    CG301    CG2O3     9     0.000000     0.836800     3
     NH1      CT1    CG311    CG2O1     9     0.000000     0.836800     3
     NH1      CT1    CG311    CG2O3     9     0.000000     0.836800     3
     NH1      CT1    CG311    CG2O4     9     0.000000     0.836800     3
     NH1      CT1    CG311   CG2R51     9     0.000000     0.836800     3
     NH1      CT1    CG311   CG2R61     9     0.000000     0.836800     3
     NH1      CT1    CG311    CG311     9     0.000000     0.836800     3
     NH1      CT1    CG311    CG321     9     0.000000     0.836800     3
     NH1      CT1    CG311    CG331     9     0.000000     0.836800     3
     NH1      CT1    CG311     HGA1     9     0.000000     0.836800     3
     NH1      CT1    CG311    OG311     9     0.000000     0.836800     3
     NH1      CT1    CG311    SG311     9     0.000000     0.836800     3
     NH1      CT1    CG311    OG301     9     0.000000     0.836800     3
     NH1      CT1    CG311    OG303     9     0.000000     0.376560     1
     NH1      CT1    CG311    OG303     9   180.000000     0.794960     2
     NH1      CT1    CG311    OG303     9     0.000000     0.711280     3
     NH1      CT1    CG321    CG2O1     9     0.000000     0.836800     3
     NH1      CT1    CG321    CG2O2     9     0.000000     0.836800     3
     NH1      CT1    CG321    CG2O3     9     0.000000     0.836800     3
     NH1      CT1    CG321    CG2O4     9     0.000000     0.836800     3
     NH1      CT1    CG321    CG2O5     9     0.000000     0.836800     3
     NH1      CT1    CG321   CG2R51     9     0.000000     0.836800     3
     NH1      CT1    CG321   CG2R61     9     0.000000     0.836800     3
     NH1      CT1    CG321    CG301     9     0.000000     0.836800     3
     NH1      CT1    CG321    CG311     9     0.000000     0.836800     3
     NH1      CT1    CG321    CG321     9     0.000000     0.836800     3
     NH1      CT1    CG321    CG324     9     0.000000     0.836800     3
     NH1      CT1    CG321    CG331     9     0.000000     0.836800     3
     NH1      CT1    CG321   CG3C51     9     0.000000     0.836800     3
     NH1      CT1    CG321     HGA2     9     0.000000     0.836800     3
     NH1      CT1    CG321    SG301     9     0.000000     0.836800     3
     NH1      CT1    CG321    SG311     9     0.000000     0.836800     3
     NH1      CT1    CG321    SG3O1     9   180.000000     3.974800     1
     NH1      CT1    CG321    SG3O1     9     0.000000     5.564720     2
     NH1      CT1    CG321    SG3O1     9   180.000000     0.334720     3
     NH1      CT1    CG321    SG3O2     9   180.000000     3.974800     1
     NH1      CT1    CG321    SG3O2     9     0.000000     5.564720     2
     NH1      CT1    CG321    SG3O2     9   180.000000     0.334720     3
     NH1      CT1    CG321   CG2DC1     9   180.000000     2.175680     1
     NH1      CT1    CG321   CG2DC1     9   180.000000     2.594080     2
     NH1      CT1    CG321   CG2DC1     9     0.000000     6.610720     3
     NH1      CT1    CG324     HGA2     9     0.000000     0.836800     3
     NH1      CT1    CG324    NG3P3     9     0.000000     0.815880     3
     NH1      CT1    CG322    CG331     9     0.000000     0.836800     3
     NH1      CT2        C        N     9     0.000000     1.673600     1
     NH1      CT2        C    NG2D1     9     0.000000     1.673600     1
     NH1      CT2        C    NG2S0     9     0.000000     1.673600     1
     NH1      CT2        C    NG2S1     9     0.000000     1.673600     1
     NH1       CT      CT3      HA3     9     0.000000     0.836800     3
     NH1       CT      CT2      HA2     9     0.000000     0.836800     3
     NH1       CT      CT2        S     9     0.000000     1.422560     1
     NH1       CT      CT2        S     9   180.000000     2.092000     2
     NH1       CT      CT2        S     9     0.000000     5.983120     3
     NH1       CT      CT2      OH1     9   180.000000     0.753120     1
     NH1       CT      CT2      OH1     9   180.000000     0.794960     2
     NH1       CT      CT2      OH1     9     0.000000     6.108640     3
     NH1       CT     CT2A      HA2     9     0.000000     0.836800     3
     NH1       CT       CC       OC     9   180.000000     0.209200     6
     NH1    CG2O1   CG2D1O   CG2DC1     9   180.000000     0.095814     1
     NH1    CG2O1   CG2D1O   CG2DC1     9   180.000000     7.011966     2
     NH1    CG2O1   CG2D1O   CG2DC1     9     0.000000     0.423421     3
     NH1    CG2O1   CG2D1O   CG2DC1     9     0.000000     0.498314     4
     NH1    CG2O1   CG2D1O    NG2S1     9   180.000000     2.171914     2
     NH1    CG2O1   CG2D1O    NG2S1     9   180.000000     1.503730     3
     NH1    CG2O1   CG2D1O    NG2S1     9     0.000000     1.958112     6
     NH1    CG2O1    CG311    CG2O3     9     0.000000     0.001674     1
     NH1    CG2O1    CG311    CG2O3     9     0.000000     7.399404     2
     NH1    CG2O1    CG311    CG2O3     9     0.000000     4.318725     3
     NH1    CG2O1   CG3C50    OG311     9     0.000000    10.054152     1
     NH1    CG2O1   CG3C50    OG311     9   180.000000    15.208840     2
     NH1    CG2O1   CG3C51   CG2R51     9     0.000000     0.041840     2
     NH1    CG2O1   CG3C51   NG3C51     9   180.000000     2.479020     1
     NH1    CG2O1   CG3C51   NG3C51     9   180.000000    12.047410     2
     NH1    CG2O1   CG3C51   NG3C51     9   180.000000     1.751004     3
     NH1     CTD1   CG2R61   CG2R61     9     0.000000     0.497896     2
     NH1     CTD1   CG2R61   CG2R61     9   180.000000     0.054392     6
     NH1     CTD1   CG2R61   CG2R66     9     0.000000     0.497896     2
     NH1     CTD1   CG2R61   CG2R66     9   180.000000     0.552288     4
     NH1     CTD1   CG2R61   CG2R66     9   180.000000     0.054392     6
     NH1     CTD1    CG311   CG2R61     9     0.000000     0.836800     3
     NH1     CTD1    CG311    CG311     9     0.000000     0.836800     3
     NH1     CTD1    CG311    CG321     9     0.000000     0.836800     3
     NH1     CTD1    CG311    CG331     9     0.000000     0.836800     3
     NH1     CTD1    CG311     HGA1     9     0.000000     0.836800     3
     NH1     CTD1    CG321   CG2DC1     9   180.000000     2.175680     1
     NH1     CTD1    CG321   CG2DC1     9   180.000000     2.594080     2
     NH1     CTD1    CG321   CG2DC1     9     0.000000     6.610720     3
     NH1     CTD1    CG321   CG2R51     9     0.000000     0.836800     3
     NH1     CTD1    CG321   CG2R61     9     0.000000     0.836800     3
     NH1     CTD1    CG321    CG311     9     0.000000     0.836800     3
     NH1     CTD1    CG321    CG321     9     0.000000     0.836800     3
     NH1     CTD1    CG321    CG324     9     0.000000     0.836800     3
     NH1     CTD1    CG321   CG3C51     9     0.000000     0.836800     3
     NH1     CTD1    CG321     HGA2     9     0.000000     0.836800     3
     NH1     CTD1    CG322    CG331     9     0.000000     0.836800     3
     NH1     CTD1    CG324     HGA2     9     0.000000     0.836800     3
     NH1     CTD1        C        N     9     0.000000     1.673600     1
     NH1     CTD1      CT1      HA1     9     0.000000     0.836800     3
     NH1     CTD1      CT1      OH1     9     0.000000     0.376560     1
     NH1     CTD1      CT1      OH1     9   180.000000     0.794960     2
     NH1     CTD1      CT1      OH1     9     0.000000     0.711280     3
     NH1     CTD1      CT2      HA2     9     0.000000     0.836800     3
     NH1     CTD1      CT2        S     9     0.000000     1.422560     1
     NH1     CTD1      CT2        S     9   180.000000     2.092000     2
     NH1     CTD1      CT2        S     9     0.000000     5.983120     3
     NH1     CTD1      CT2      OH1     9   180.000000     0.753120     1
     NH1     CTD1      CT2      OH1     9   180.000000     0.794960     2
     NH1     CTD1      CT2      OH1     9     0.000000     6.108640     3
     NH1     CTD1     CT2A      HA2     9     0.000000     0.836800     3
     NH3      CT1        C        N     9     0.000000     1.673600     1
     NH3      CT1        C      NH1     9     0.000000     2.510400     1
     NH3      CT1        C    NG2D1     9     0.000000     1.673600     1
     NH3      CT1       CC      NH2     9     0.000000     1.673600     1
     NH3      CT1     CT2A      CT2     9     0.000000     0.836800     3
     NH3      CT1     CT2A      HA2     9     0.000000     0.836800     3
     NH3      CT1     CT2A       CC     9     0.000000     0.836800     3
     NH3      CT1       CS      HA2     9     0.000000     0.836800     3
     NH3      CT1       CS       SS     9     0.000000     0.836800     3
     NH3      CT1      CT2       OC     9     0.000000     0.836800     3
     NH3      CT1      CT2    OC301     9   180.000000     1.757280     1
     NH3      CT1      CT2    OC301     9   180.000000     2.845120     2
     NH3      CT1      CT2    OC301     9     0.000000     4.435040     3
     NH3      CT1    CC321     HCA2     9     0.000000     0.836800     3
     NH3      CT1    CC321    CC2O1     9     0.000000     0.836800     3
     NH3      CT1      CT1    OC301     9     0.000000     1.966480     1
     NH3      CT1      CT1    OC301     9     0.000000     6.694400     2
     NH3      CT1      CT1    OC301     9   180.000000     1.631760     3
     NH3      CT1    CG321     HGA2     9     0.000000     0.836800     3
     NH3      CT1    CG321    CG321     9     0.000000     0.836800     3
     NH3      CT2        C        N     9     0.000000     1.673600     1
     NH3      CT2        C      NH1     9     0.000000     4.184000     1
     NH3      CT2       CC      NH2     9     0.000000     1.673600     1
     NH3      CT2      CT2        N     9   180.000000     6.694400     1
     NH3      CT2      CT2        N     9     0.000000     3.347200     2
     NH3      CT2      CT2        N     9     0.000000     2.928800     3
     NH3      CT2      CT2      HB2     9     0.000000     1.673600     3
     NH3      CT2     CT2P        N     9   180.000000     6.694400     1
     NH3      CT2     CT2P        N     9     0.000000     3.347200     2
     NH3      CT2     CT2P        N     9     0.000000     2.928800     3
     NH3      CT2     CT2P      HB2     9     0.000000     1.673600     3
     NH3       CT     CT2A      CT2     9     0.000000     0.836800     3
     NH3       CT     CT2A      HA2     9     0.000000     0.836800     3
     NH3       CT     CT2A       CC     9     0.000000     0.836800     3
     NH3       CT        C        N     9     0.000000     1.673600     1
     NH3       CT        C      NH1     9     0.000000     2.510400     1
     NH3       CT      CT3      HA3     9     0.000000     0.836800     3
     NH3       CT       CC       OC     9   180.000000     0.209200     6
     NH3   CG2R64   NG2R62   CG2R64     9   180.000000    12.970400     2
     NH3     CTD1        C        N     9     0.000000     1.673600     1
     NH3     CTD1        C      NH1     9     0.000000     2.510400     1
     NH3     CTD1       CC      NH2     9     0.000000     1.673600     1
      NP      CP1        C        N     9     0.000000     1.255200     1
      NP      CP1        C      NH1     9     0.000000     1.255200     1
      NP      CP1       CC      NH2     9     0.000000     1.255200     1
      NP     CPD1        C        N     9     0.000000     1.255200     1
      NP     CPD1        C      NH1     9     0.000000     1.255200     1
      NP     CPD1       CC      NH2     9     0.000000     1.255200     1
     NR1     CPH1     CPH1      CT2     9   180.000000    12.552000     2
     NR1     CPH1     CPH1      CT3     9   180.000000    12.552000     2
     NR1     CPH1     CPH1      HR3     9   180.000000    12.552000     2
     NR1     CPH1      CT2      CT2     9     0.000000     0.794960     3
     NR1     CPH1      CT2      CT3     9     0.000000     0.794960     3
     NR1     CPH1      CT2      HA2     9     0.000000     0.794960     3
     NR1     CPH1      CT2       HA     9     0.000000     0.794960     3
     NR1     CPH1      CT3      HA3     9     0.000000     0.794960     3
     NR1     CPH1      CT3       HA     9     0.000000     0.794960     3
     NR1     CPH2      NR2     CPH1     9   180.000000    58.576000     2
     NR1     CN7B     CN7B      ON5     9     0.000000     0.000000     3
     NR1     CN7B      CN8      CN7     9     0.000000     0.000000     3
     NR2     CPH1     CPH1      CT2     9   180.000000    12.552000     2
     NR2     CPH1     CPH1      CT3     9   180.000000    12.552000     2
     NR2     CPH1     CPH1      HR3     9   180.000000    12.552000     2
     NR2     CPH1     CPH1      NR1     9   180.000000    58.576000     2
     NR2     CPH1      CT2      CT2     9     0.000000     0.794960     3
     NR2     CPH1      CT2      CT3     9     0.000000     0.794960     3
     NR2     CPH1      CT2      HA2     9     0.000000     0.794960     3
     NR2     CPH1      CT2       HA     9     0.000000     0.794960     3
     NR2     CPH1      CT3      HA3     9     0.000000     0.794960     3
     NR2     CPH1      CT3       HA     9     0.000000     0.794960     3
     NR2     CPH2      NR1     CPH1     9   180.000000    58.576000     2
     NR2     CPH2      NR1        H     9   180.000000     4.184000     2
     NR2     CPH2      NR1      CT3     9   180.000000    12.552000     2
     NR2       ZN      NR2     CPH1     9     0.000000     0.000000     3
     NR2       ZN      NR2     CPH2     9     0.000000     0.000000     3
     NR3     CPH1     CPH1      CT2     9   180.000000    10.460000     2
     NR3     CPH1     CPH1      CT3     9   180.000000    10.460000     2
     NR3     CPH1     CPH1      HR1     9   180.000000    10.460000     2
     NR3     CPH1     CPH1      NR3     9   180.000000    50.208000     2
     NR3     CPH1      CT2      CT2     9     0.000000     0.794960     3
     NR3     CPH1      CT2      CT3     9     0.000000     0.794960     3
     NR3     CPH1      CT2      HA2     9     0.000000     0.794960     3
     NR3     CPH1      CT2      CT1     9     0.000000     0.794960     3
     NR3     CPH1      CT2       HA     9     0.000000     0.794960     3
     NR3     CPH1      CT2     CTD1     9     0.000000     0.794960     3
     NR3     CPH1      CT3      HA3     9     0.000000     0.794960     3
     NR3     CPH1      CT3       HA     9     0.000000     0.794960     3
     NR3     CPH2      NR3     CPH1     9   180.000000    50.208000     2
     NR3     CPH2      NR3        H     9   180.000000     5.857600     2
     NR3     CPH2      NR3      CT3     9   180.000000    12.552000     2
       O        C      CP1      CP2     9   180.000000     1.673600     1
       O        C      CP1      CP2     9     0.000000     2.510400     2
       O        C      CP1      HB1     9     0.000000     1.673600     1
       O        C      CP1      HB1     9     0.000000     2.510400     2
       O        C      CP1        N     9     0.000000    -1.255200     4
       O        C      CP1       HB     9     0.000000     1.673600     1
       O        C      CP1       HB     9     0.000000     2.510400     2
       O        C      CT1      CT1     9     0.000000     5.857600     1
       O        C      CT1      CT2     9     0.000000     5.857600     1
       O        C      CT1      CT3     9     0.000000     5.857600     1
       O        C      CT1      HB1     9     0.000000     0.000000     1
       O        C      CT1      NH1     9     0.000000     0.000000     1
       O        C      CT1      NH3     9     0.000000     0.000000     1
       O        C      CT1       CS     9     0.000000     5.857600     1
       O        C      CT1       HB     9     0.000000     0.000000     1
       O        C      CT1    CG2D1     9     0.000000     5.857600     1
       O        C      CT1   CG2R51     9     0.000000     0.000000     1
       O        C      CT1   CG2R61     9     0.000000     5.857600     1
       O        C      CT1     CTD1     9     0.000000     5.857600     1
       O        C      CT2      CT2     9     0.000000     5.857600     1
       O        C      CT2      HA2     9   180.000000     0.000000     3
       O        C      CT2      HB2     9     0.000000     0.000000     1
       O        C      CT2      NH1     9     0.000000     0.000000     1
       O        C      CT2      NH3     9     0.000000     0.000000     1
       O        C      CT2       HA     9   180.000000     0.000000     3
       O        C      CT2       HB     9     0.000000     0.000000     1
       O        C      CT2        N     9     0.000000     0.878640     1
       O        C      CT2        N     9   180.000000     4.518720     2
       O        C      CT2        N     9     0.000000     1.255200     3
       O        C      CT3      HA3     9   180.000000     0.000000     3
       O        C      CT3       HA     9   180.000000     0.000000     3
       O        C        N      CP1     9   180.000000    11.506000     2
       O        C        N      CP1     9     0.000000     1.255200     4
       O        C        N      CP3     9   180.000000    11.506000     2
       O        C        N      CP3     9     0.000000     1.255200     4
       O        C        N      CT3     9   180.000000    10.878400     2
       O        C        N      CT2     9   180.000000    10.878400     2
       O        C        N     CPD1     9   180.000000    11.506000     2
       O        C        N     CPD1     9     0.000000     1.255200     4
       O        C      NH1      CT1     9   180.000000    10.460000     2
       O        C      NH1      CT2     9   180.000000    10.460000     2
       O        C      NH1      CT3     9   180.000000    10.460000     2
       O        C      NH1        H     9   180.000000    10.460000     2
       O        C      NH1       CT     9   180.000000    10.460000     2
       O        C      NH1     CTD1     9   180.000000    10.460000     2
       O        C      NH1       CA     9   180.000000    10.460000     2
       O        C      OSL     CTL2     9   180.000000     4.037560     1
       O        C      NHL    CC322     9   180.000000    10.460000     2
       O        C      NHL     CTL2     9   180.000000    10.460000     2
       O        C      NHL     CTL3     9   180.000000    10.460000     2
       O        C      NHL     CTL1     9   180.000000    10.460000     2
       O        C       CT      CT3     9     0.000000     0.000000     1
       O        C       CT      NH1     9     0.000000     0.000000     1
       O        C       CT      CT2     9     0.000000     0.000000     1
       O        C       CT      NH3     9     0.000000     0.000000     1
       O        C    NG2S0   CG3C51     9   180.000000    11.506000     2
       O        C    NG2S0   CG3C51     9     0.000000     1.255200     4
       O        C    NG2S0   CG3C52     9   180.000000    11.506000     2
       O        C    NG2S0   CG3C52     9     0.000000     1.255200     4
       O        C    NG2S0    CG321     9   180.000000    10.878400     2
       O        C    NG2S0    CG311     9   180.000000    10.878400     2
       O        C    NG2S0    CG331     9   180.000000    10.878400     2
       O        C    NG2S0   CG3C50     9   180.000000    11.506000     2
       O        C    NG2S0   CG3C50     9     0.000000     1.255200     4
       O        C    NG2S1     HGP1     9   180.000000    10.460000     2
       O        C    NG2S1    CG311     9   180.000000    10.460000     2
       O        C    NG2S1    CG331     9   180.000000    10.460000     2
       O        C    NG2S1   CG3C51     9   180.000000    10.460000     2
       O        C    NG2S1    CG321     9   180.000000    10.460000     2
       O        C    NG2S1   CG2D1O     9   180.000000     8.982211     2
       O        C    NG2D1   CG2DC1     9   180.000000     0.094977     2
       O        C     CTD1   CG2R51     9     0.000000     0.000000     1
       O        C     CTD1   CG2R61     9     0.000000     5.857600     1
       O        C     CTD1      CT1     9     0.000000     5.857600     1
       O        C     CTD1      CT2     9     0.000000     5.857600     1
       O        C     CTD1      CT3     9     0.000000     5.857600     1
       O        C     CTD1      HB1     9     0.000000     0.000000     1
       O        C     CTD1      NH1     9     0.000000     0.000000     1
       O        C     CTD1      NH3     9     0.000000     0.000000     1
       O        C     CPD1      CP2     9   180.000000     1.673600     1
       O        C     CPD1      CP2     9     0.000000     2.510400     2
       O        C     CPD1      HB1     9     0.000000     1.673600     1
       O        C     CPD1      HB1     9     0.000000     2.510400     2
       O        C     CPD1        N     9     0.000000    -1.255200     4
       O        C     CC1A     CC1A     9   180.000000     2.928800     1
       O        C     CC1A     CC1A     9   180.000000     5.020800     2
       O        C     CC1A     CC1A     9   180.000000     0.418400     3
       O        C     CC1A     CC1A     9     0.000000     0.836800     4
       O        C     CTL2    CC301     9     0.000000     5.857600     1
       O        C     CTL2     CTL3     9     0.000000     5.857600     1
       O        C     CTL2     CTL2     9     0.000000     5.857600     1
       O        C     CTL2     HAL2     9   180.000000     0.000000     3
       O        C     CTL3     HAL3     9   180.000000     0.000000     3
       O        C     CTL1     HAL1     9     0.000000     0.000000     1
       O        C     CTL1      OH1     9     0.000000     5.857600     1
       O        C     CTL1     CEL3     9     0.000000     5.857600     1
       O       CC      CP1      CP2     9   180.000000     1.673600     1
       O       CC      CP1      CP2     9     0.000000     2.510400     2
       O       CC      CP1      HB1     9     0.000000     1.673600     1
       O       CC      CP1      HB1     9     0.000000     2.510400     2
       O       CC      CP1        N     9     0.000000    -1.255200     4
       O       CC      CP1       HB     9     0.000000     1.673600     1
       O       CC      CP1       HB     9     0.000000     2.510400     2
       O       CC      CT2      HA2     9   180.000000     0.000000     3
       O       CC      CT2       HA     9   180.000000     0.000000     3
       O       CC      NH2        H     9   180.000000     5.857600     2
       O       CC     CPD1      CP2     9   180.000000     1.673600     1
       O       CC     CPD1      CP2     9     0.000000     2.510400     2
       O       CC     CPD1      HB1     9     0.000000     1.673600     1
       O       CC     CPD1      HB1     9     0.000000     2.510400     2
       O       CC     CPD1        N     9     0.000000    -1.255200     4
      OB       CD       OS      CT2     9   180.000000     4.037560     1
      OB       CD       OS      CT2     9   180.000000    16.108400     2
      OB       CD       OS      CT3     9   180.000000     4.037560     1
      OB       CD       OS      CT3     9   180.000000    16.108400     2
      OC       CA       CA       CA     9   180.000000    12.970400     2
      OC       CA       CA       HP     9   180.000000    17.572800     2
      OC       CC      CP1      CP2     9     0.000000     0.669440     3
      OC       CC      CP1      HB1     9     0.000000     0.669440     3
      OC       CC      CP1        N     9     0.000000     0.669440     3
      OC       CC      CP1       NP     9     0.000000     0.669440     3
      OC       CC      CP1       HB     9     0.000000     0.669440     3
      OC       CC      CT1      NH3     9   180.000000    13.388800     2
      OC       CC      CT2      NH3     9   180.000000    13.388800     2
      OC       CC     CTD1      NH3     9   180.000000    13.388800     2
      OC       CC     CPD1      CP2     9     0.000000     0.669440     3
      OC       CC     CPD1      HB1     9     0.000000     0.669440     3
      OC       CC     CPD1        N     9     0.000000     0.669440     3
      OC       CC     CPD1       NP     9     0.000000     0.669440     3
     OH1       CA       CA       CA     9   180.000000    12.970400     2
     OH1       CA       CA       HP     9   180.000000    17.572800     2
     OH1      CT1      CT3      HA3     9     0.000000     0.836800     3
     OH1     CTL1     CEL3     HEL1     9     0.000000     0.836800     3
     OH1     CTL1     CEL3     CEL3     9   180.000000     2.092000     1
     OH1     CTL1     CEL3     CEL3     9   180.000000     5.439200     3
       S      CT2      CT2      HA2     9     0.000000     0.041840     3
       S      CT2      CT2       HA     9     0.000000     0.041840     3
       S   CG2R64   NG2R62   CG2R64     9   180.000000     8.368000     2
       S    CG321    CG2D1     HGA4     9     0.000000     0.836800     3
       S    CG321    CG2D1    CG2D1     9     0.000000     0.836800     3
       S    CG321     CTL1     HAL1     9     0.000000     0.836800     3
       S    CG321     CTL1      OSL     9     0.000000     0.836800     3
       S    CG321     CTL1     CTL2     9     0.000000     0.836800     3
      SM      CT2      CT2      HA2     9     0.000000     0.041840     3
      SM      CT2      CT2       HA     9     0.000000     0.041840     3
      SM       SM      CT2      CT1     9     0.000000     1.297040     3
      SM       SM      CT2      CT2     9     0.000000     1.297040     3
      SM       SM      CT2      CT3     9     0.000000     1.297040     3
      SM       SM      CT2      HA2     9     0.000000     0.661072     3
      SM       SM      CT2       HA     9     0.000000     0.661072     3
      SM       SM      CT2       CT     9     0.000000     1.297040     3
      SM       SM      CT2     CTD1     9     0.000000     1.297040     3
      SM       SM      CT3      HA3     9     0.000000     0.661072     3
      SM       SM      CT3       HA     9     0.000000     0.661072     3
      SS       CS      CT3      HA3     9     0.000000     0.627600     3
      SS       CS      CT3       HA     9     0.000000     0.627600     3
      SS       ZN      NR2     CPH1     9     0.000000     0.000000     3
      SS       ZN      NR2     CPH2     9     0.000000     0.000000     3
     NC2        C      NC2       HC     9   180.000000     9.414000     2
    CT2A      CT1        C        O     9     0.000000     5.857600     1
    CT2A      CT1        C      NH1     9     0.000000     0.000000     1
    CT2A      CT1        C        N     9     0.000000     0.000000     1
    CT2A      CT1        C    NG2D1     9     0.000000     0.000000     1
    CT2A      CT1        C    NG2S0     9     0.000000     0.000000     1
    CT2A      CT1        C    NG2S1     9     0.000000     0.000000     1
    CT2A     CPH1     CPH1      HR1     9   180.000000     4.184000     2
    CT2A     CPH1     CPH1      NR3     9   180.000000    10.460000     2
    CT2A     CPH1      NR3        H     9   180.000000    12.552000     2
    CT2A     CPH1      NR3     CPH2     9   180.000000    10.460000     2
    CT2A       CT      CT3      HA3     9     0.000000     0.669440     3
    CT2A       CT        C        O     9     0.000000     0.000000     1
    CT2A       CT        C      NH1     9     0.000000     0.000000     1
    CT2A       CT        C        N     9     0.000000     0.000000     1
    CT2A     CTD1        C        O     9     0.000000     5.857600     1
    CT2A     CTD1        C      NH1     9     0.000000     0.000000     1
    CT2A     CTD1        C        N     9     0.000000     0.000000     1
    CPH1     CPH1      CT2      CT1     9     0.000000     7.280160     1
    CPH1     CPH1      CT2      CT1     9     0.000000     0.627600     2
    CPH1     CPH1      CT2      CT1     9   180.000000     3.221680     3
    CPH1     CPH1      CT2       CT     9     0.000000     7.280160     1
    CPH1     CPH1      CT2       CT     9     0.000000     0.627600     2
    CPH1     CPH1      CT2       CT     9   180.000000     3.221680     3
    CPH1     CPH1      CT2     CTD1     9     0.000000     7.280160     1
    CPH1     CPH1      CT2     CTD1     9     0.000000     0.627600     2
    CPH1     CPH1      CT2     CTD1     9   180.000000     3.221680     3
    CPH1     CPH1     CT2A      CT1     9     0.000000     8.535360     1
    CPH1     CPH1     CT2A      CT1     9     0.000000     1.840960     2
    CPH1     CPH1     CT2A      CT1     9   180.000000     0.543920     3
    CPH1     CPH1     CT2A       CT     9     0.000000     8.535360     1
    CPH1     CPH1     CT2A       CT     9     0.000000     1.840960     2
    CPH1     CPH1     CT2A       CT     9   180.000000     0.543920     3
    CPH1     CPH1     CT2A     CTD1     9     0.000000     8.535360     1
    CPH1     CPH1     CT2A     CTD1     9     0.000000     1.840960     2
    CPH1     CPH1     CT2A     CTD1     9   180.000000     0.543920     3
    CPH1     CPH1      NR1      CT3     9   180.000000    46.024000     2
    CPH1     CPH1      NR3      CT3     9   180.000000    46.024000     2
    CPH1      CT2      CT1      NH1     9     0.000000     0.000000     1
    CPH1      CT2      CT1      NH1     9   180.000000     0.000000     2
    CPH1      CT2      CT1      NH1     9     0.000000     3.765600     3
    CPH1      CT2       CT      NH1     9     0.000000     0.000000     1
    CPH1      CT2       CT      NH1     9   180.000000     0.000000     2
    CPH1      CT2       CT      NH1     9     0.000000     3.765600     3
    CPH1      CT2     CTD1      NH1     9     0.000000     0.000000     1
    CPH1      CT2     CTD1      NH1     9   180.000000     0.000000     2
    CPH1      CT2     CTD1      NH1     9     0.000000     3.765600     3
    CPH1     CT2A      CT1      NH1     9   180.000000     4.560560     1
    CPH1     CT2A      CT1      NH1     9   180.000000     0.920480     2
    CPH1     CT2A      CT1      NH1     9     0.000000     9.706880     3
    CPH1     CT2A      CT1       CC     9     0.000000     0.836800     3
    CPH1     CT2A      CT1      NH3     9     0.000000     0.836800     3
    CPH1     CT2A      CT1       CD     9     0.000000     0.836800     3
    CPH1     CT2A       CT      NH1     9   180.000000     4.560560     1
    CPH1     CT2A       CT      NH1     9   180.000000     0.920480     2
    CPH1     CT2A       CT      NH1     9     0.000000     9.706880     3
    CPH1     CT2A       CT       CC     9     0.000000     0.836800     3
    CPH1     CT2A       CT      NH3     9     0.000000     0.836800     3
    CPH1     CT2A       CT       CD     9     0.000000     0.836800     3
    CPH1     CT2A     CTD1      NH1     9   180.000000     4.560560     1
    CPH1     CT2A     CTD1      NH1     9   180.000000     0.920480     2
    CPH1     CT2A     CTD1      NH1     9     0.000000     9.706880     3
    CPH1      NR1      CT3      HA3     9     0.000000     0.000000     3
    CPH1      NR3      CT3      HA3     9     0.000000     0.000000     3
      CS      CT1      NH1        C     9     0.000000     7.531200     1
      CS       SS       ZN       SS     9     0.000000     0.000000     3
      CS       SS       ZN      NR2     9     0.000000     0.000000     3
   NG1T1    CG1N1   CG2R61   CG2R61     9     0.000000     0.041840     2
   NG1T1    CG1N1    SG311    CG321     9     0.000000     0.025104     1
   NG1T1    CG321    CG321     HGA2     9     0.000000     0.002510     3
   NG1T1    CG321    CG321      CT1     9   180.000000     3.098670     1
   NG1T1    CG321    CG321      CT1     9     0.000000     2.697425     3
   NG1T1    CG321    CG331     HGA3     9     0.000000     1.072359     3
   NG1T1    CG321      CT1        C     9   180.000000     1.820040     1
   NG1T1    CG321      CT1        C     9   180.000000     1.300806     2
   NG1T1    CG321      CT1        C     9   180.000000     0.799981     3
   NG1T1    CG321      CT1      HB1     9     0.000000     5.310333     1
   NG1T1    CG321      CT1      HB1     9   180.000000    10.043274     2
   NG1T1    CG321      CT1      HB1     9     0.000000     1.561887     3
   NG1T1    CG321      CT1      NH1     9   180.000000     7.044601     1
   NG1T1    CG321      CT1      NH1     9   180.000000    11.852435     2
   NG1T1    CG321      CT1      NH1     9   180.000000     0.013389     3
   NG1T1    CG321     CTD1        C     9   180.000000     1.820040     1
   NG1T1    CG321     CTD1        C     9   180.000000     1.300806     2
   NG1T1    CG321     CTD1        C     9   180.000000     0.799981     3
   NG1T1    CG321     CTD1      HB1     9     0.000000     5.310333     1
   NG1T1    CG321     CTD1      HB1     9   180.000000    10.043274     2
   NG1T1    CG321     CTD1      HB1     9     0.000000     1.561887     3
   NG1T1    CG321     CTD1      NH1     9   180.000000     7.044601     1
   NG1T1    CG321     CTD1      NH1     9   180.000000    11.852435     2
   NG1T1    CG321     CTD1      NH1     9   180.000000     0.013389     3
   NG1T1    NG1T1    CG321      CT1     9     0.000000     2.541780     1
   NG1T1    NG1T1    CG321      CT1     9     0.000000     1.704562     3
   NG1T1    NG1T1    CG321     CTD1     9     0.000000     2.541780     1
   NG1T1    NG1T1    CG321     CTD1     9     0.000000     1.704562     3
  CG2R53   CG251O   CG251O   CG3C52     9   180.000000     9.999760     2
  CG2R53   CG251O   CG251O   NG3C51     9   180.000000    12.008080     2
  CG2R53   CG251O   CG25C1   CG2R53     9   180.000000    26.777600     2
  CG2R53   CG251O   CG25C1   CG2RC0     9   180.000000    26.777600     2
  CG2R53   CG251O   CG25C1   CG3C52     9   180.000000    12.761200     2
  CG2R53   CG251O   CG2D1O    NG301     9   180.000000    20.208720     2
  CG2R53   CG251O   CG2D1O     HGA4     9   180.000000    10.167120     2
  CG2R53   CG251O   CG2DC1    CG2O3     9   180.000000    18.576960     2
  CG2R53   CG251O   CG2DC1   CG2R51     9   180.000000    16.826793     2
  CG2R53   CG251O   CG2DC1   CG2R61     9   180.000000    16.826793     2
  CG2R53   CG251O   CG2DC1    CG331     9   180.000000    16.826793     2
  CG2R53   CG251O   CG2DC1     HGA4     9   180.000000    16.336846     2
  CG2R53   CG251O   CG2DC3     HGA5     9   180.000000    16.317600     2
  CG2R53   CG251O   CG2R61   CG2R61     9   180.000000    22.007840     2
  CG2R53   CG251O   CG2R61   CG2R61     9   180.000000     0.292880     4
  CG2R53   CG251O   CG2R61   NG2R61     9   180.000000     9.162960     2
  CG2R53   CG251O   CG2R61   NG2R61     9   180.000000     1.589920     4
  CG2R53   CG251O   NG2R50   CG2R53     9   180.000000     0.319658     2
  CG2R53   CG251O   NG2R53   CG2R53     9   180.000000     2.092000     2
  CG2R53   CG251O   NG2R53     HGP1     9   180.000000     1.673600     2
  CG2R53   CG251O    SG311   CG2R53     9   180.000000     5.020800     3
  CG2R53   CG252O   CG252O   CG3C52     9   180.000000     9.999760     2
  CG2R53   CG252O   CG252O   NG3C51     9   180.000000    12.008080     2
  CG2R53   CG252O   CG25C2   CG2R53     9   180.000000    26.777600     2
  CG2R53   CG252O   CG25C2   CG2RC0     9   180.000000    26.777600     2
  CG2R53   CG252O   CG25C2   CG3C52     9   180.000000    12.761200     2
  CG2R53   CG252O   CG2D2O    NG301     9   180.000000    20.208720     2
  CG2R53   CG252O   CG2D2O     HGA4     9   180.000000    10.167120     2
  CG2R53   CG252O   CG2DC2    CG2O3     9   180.000000    18.576960     2
  CG2R53   CG252O   CG2DC2   CG2R51     9   180.000000    16.826793     2
  CG2R53   CG252O   CG2DC2   CG2R61     9   180.000000    16.826793     2
  CG2R53   CG252O   CG2DC2    CG331     9   180.000000    16.826793     2
  CG2R53   CG252O   CG2DC2     HGA4     9   180.000000    16.336846     2
  CG2R53   CG252O   CG2DC3     HGA5     9   180.000000    16.317600     2
  CG2R53   CG252O   CG2R61   CG2R61     9   180.000000    22.007840     2
  CG2R53   CG252O   CG2R61   CG2R61     9   180.000000     0.292880     4
  CG2R53   CG252O   CG2R61   NG2R61     9   180.000000     9.162960     2
  CG2R53   CG252O   CG2R61   NG2R61     9   180.000000     1.589920     4
  CG2R53   CG252O   NG2R50   CG2R53     9   180.000000     0.319658     2
  CG2R53   CG252O   NG2R53   CG2R53     9   180.000000     2.092000     2
  CG2R53   CG252O   NG2R53     HGP1     9   180.000000     1.673600     2
  CG2R53   CG252O    SG311   CG2R53     9   180.000000     5.020800     3
  CG2R53   CG25C1   CG2D1O    CG2O3     9   180.000000     8.786400     2
  CG2R53   CG25C1   CG2D1O    CG331     9   180.000000     3.640080     2
  CG2R53   CG25C1   CG2D1O    NG301     9   180.000000    27.196000     2
  CG2R53   CG25C1   CG2D1O    OG311     9   180.000000    34.936400     2
  CG2R53   CG25C1   CG2D1O    OG312     9   180.000000     3.891120     2
  CG2R53   CG25C1   CG2D1O     HGA4     9   180.000000    11.338640     2
  CG2R53   CG25C1   CG2DC1    CG1N1     9   180.000000    13.765360     2
  CG2R53   CG25C1   CG2DC1   CG2R52     9   180.000000    16.819680     2
  CG2R53   CG25C1   CG2DC1     HGA4     9   180.000000    16.317600     2
  CG2R53   CG25C1   CG2DC3     HGA5     9   180.000000    18.409600     2
  CG2R53   CG25C1   CG2RC0   CG2R61     9   180.000000    12.552000     2
  CG2R53   CG25C1   CG2RC0   CG2RC0     9   180.000000    14.644000     2
  CG2R53   CG25C1   CG3C52   CG2R53     9     0.000000     0.209200     2
  CG2R53   CG25C1   CG3C52   CG2R53     9     0.000000     0.794960     3
  CG2R53   CG25C1   CG3C52     HGA2     9     0.000000     0.000000     3
  CG2R53   CG25C1   CG3RC1    CG321     9     0.000000     1.087840     3
  CG2R53   CG25C1   CG3RC1    CG321     9     0.000000     1.338880     6
  CG2R53   CG25C1   CG3RC1   CG3RC1     9     0.000000     4.393200     3
  CG2R53   CG25C1   CG3RC1   CG3RC1     9   180.000000     1.589920     6
  CG2R53   CG25C1   CG3RC1     HGA1     9     0.000000     0.000000     3
  CG2R53   CG25C2   CG2D2O    CG2O3     9   180.000000     8.786400     2
  CG2R53   CG25C2   CG2D2O    CG331     9   180.000000     3.640080     2
  CG2R53   CG25C2   CG2D2O    NG301     9   180.000000    27.196000     2
  CG2R53   CG25C2   CG2D2O    OG311     9   180.000000    34.936400     2
  CG2R53   CG25C2   CG2D2O    OG312     9   180.000000     3.891120     2
  CG2R53   CG25C2   CG2D2O     HGA4     9   180.000000    11.338640     2
  CG2R53   CG25C2   CG2DC2    CG1N1     9   180.000000    13.765360     2
  CG2R53   CG25C2   CG2DC2   CG2R52     9   180.000000    16.819680     2
  CG2R53   CG25C2   CG2DC2     HGA4     9   180.000000    16.317600     2
  CG2R53   CG25C2   CG2DC3     HGA5     9   180.000000    18.409600     2
  CG2R53   CG25C2   CG2RC0   CG2R61     9   180.000000    12.552000     2
  CG2R53   CG25C2   CG2RC0   CG2RC0     9   180.000000    14.644000     2
  CG2R53   CG25C2   CG3C52   CG2R53     9     0.000000     0.209200     2
  CG2R53   CG25C2   CG3C52   CG2R53     9     0.000000     0.794960     3
  CG2R53   CG25C2   CG3C52     HGA2     9     0.000000     0.000000     3
  CG2R53   CG25C2   CG3RC1    CG321     9     0.000000     1.087840     3
  CG2R53   CG25C2   CG3RC1    CG321     9     0.000000     1.338880     6
  CG2R53   CG25C2   CG3RC1   CG3RC1     9     0.000000     4.393200     3
  CG2R53   CG25C2   CG3RC1   CG3RC1     9   180.000000     1.589920     6
  CG2R53   CG25C2   CG3RC1     HGA1     9     0.000000     0.000000     3
  CG2R53   CG2DC1   CG2DC1    CG331     9   180.000000     2.343040     1
  CG2R53   CG2DC1   CG2DC1    CG331     9   180.000000    29.162480     2
  CG2R53   CG2DC1   CG2DC1     HGA4     9   180.000000    22.049680     2
  CG2R53   CG2DC1    CG321    CG321     9     0.000000     0.794960     3
  CG2R53   CG2DC1    CG321     HGA2     9   180.000000     2.519605     3
  CG2R53   CG2DC1    CG331     HGA3     9   180.000000     2.519605     3
  CG2R53   CG2DC1    NG2D1    CG2O1     9   180.000000    37.806624     2
  CG2R53   CG2DC2   CG2DC2    CG331     9   180.000000     2.343040     1
  CG2R53   CG2DC2   CG2DC2    CG331     9   180.000000    29.162480     2
  CG2R53   CG2DC2   CG2DC2     HGA4     9   180.000000    22.049680     2
  CG2R53   CG2DC2    CG321    CG321     9     0.000000     0.794960     3
  CG2R53   CG2DC2    CG321     HGA2     9   180.000000     2.519605     3
  CG2R53   CG2DC2    CG331     HGA3     9   180.000000     2.519605     3
  CG2R53   CG2DC2    NG2D1    CG2O1     9   180.000000    37.806624     2
  CG2R53    CG2N2    NG2P1     HGP2     9   180.000000     8.368000     2
  CG2R53    CG2O2    OG311     HGP1     9   180.000000     4.058480     1
  CG2R53    CG2O2    OG311     HGP1     9   180.000000    11.296800     2
  CG2R53    CG2O2    OG311     HGP1     9   180.000000     0.209200     3
  CG2R53    CG2O2    OG311     HGP1     9   180.000000     1.046000     6
  CG2R53    CG2O5    CG331     HGA3     9     0.000000     0.418400     3
  CG2R53   CG2R51   CG2R51   CG2R53     9   180.000000    62.760000     2
  CG2R53   CG2R51   CG2R51    CG331     9   180.000000    17.991200     2
  CG2R53   CG2R51   CG2R51   CG3C50     9   180.000000    27.614400     2
  CG2R53   CG2R51   CG2R51   CG3C51     9   180.000000    27.614400     2
  CG2R53   CG2R51   CG2R51   CG3C52     9   180.000000    27.614400     2
  CG2R53   CG2R51   CG2R51   NG2R51     9   180.000000    50.208000     2
  CG2R53   CG2R51   CG2R51    NG2S1     9   180.000000    19.581120     2
  CG2R53   CG2R51   CG2R51    NG301     9   180.000000    19.874000     2
  CG2R53   CG2R51   CG2R51    OG311     9   180.000000    20.417920     2
  CG2R53   CG2R51   CG2R51    OG312     9   180.000000     7.112800     2
  CG2R53   CG2R51   CG2R51   SG2R50     9   180.000000    35.564000     2
  CG2R53   CG2R51   CG2R51    SG3O2     9   180.000000     6.694400     2
  CG2R53   CG2R51   CG2R51    HGR51     9   180.000000    10.878400     2
  CG2R53   CG2R51   CG2R51    HGR52     9   180.000000    10.878400     2
  CG2R53   CG2R51   CG2R52    CG331     9   180.000000    12.552000     2
  CG2R53   CG2R51   CG2R52   NG2R50     9   180.000000    35.564000     2
  CG2R53   CG2R51   CG2R61   CG2R61     9   180.000000     5.983120     2
  CG2R53   CG2R51   CG2R61   CG2R61     9   180.000000     3.012480     4
  CG2R53   CG2R51   CG2RC7   CG2R71     9   180.000000     8.368000     2
  CG2R53   CG2R51   CG2RC7   CG2RC7     9   180.000000    16.736000     2
  CG2R53   CG2R51    CG311    CG321     9     0.000000     0.836800     1
  CG2R53   CG2R51    CG311    CG321     9     0.000000     1.129680     2
  CG2R53   CG2R51    CG311    CG321     9     0.000000     0.000000     3
  CG2R53   CG2R51    CG311    CG331     9     0.000000     0.836800     1
  CG2R53   CG2R51    CG311    CG331     9     0.000000     1.129680     2
  CG2R53   CG2R51    CG311    CG331     9     0.000000     0.000000     3
  CG2R53   CG2R51    CG311     HGA1     9     0.000000     0.000000     3
  CG2R53   CG2R51    CG331     HGA3     9     0.000000     0.000000     3
  CG2R53   CG2R51    NG301    CG321     9   180.000000    11.087600     2
  CG2R53   CG2R51    NG301    CG321     9     0.000000     3.807440     3
  CG2R53   CG2R51    NG301    CG321     9     0.000000     1.129680     4
  CG2R53   CG2R51    OG311     HGP1     9   180.000000     0.962320     1
  CG2R53   CG2R51    OG311     HGP1     9   180.000000     0.000000     2
  CG2R53   CG2R53   NG2R50   OG2R50     9   180.000000    21.422080     2
  CG2R53   CG2R53   NG2R53   CG251O     9     0.000000     0.000000     2
  CG2R53   CG2R53   NG2R53   CG252O     9     0.000000     0.000000     2
  CG2R53   CG2R53   NG2R53     HGP1     9   180.000000    13.849040     2
  CG2R53   CG2R53    NG311    CG321     9   180.000000     0.418400     2
  CG2R53   CG2R53    NG311    CG321     9   180.000000     0.000000     4
  CG2R53   CG2R53    NG311   HGPAM1     9   180.000000     3.012480     2
  CG2R53   CG2R53    NG311   HGPAM1     9   180.000000     0.334720     4
  CG2R53   CG2R53    NG3N1   CG2R53     9   180.000000    20.920000     2
  CG2R53   CG2R53    NG3N1    NG3N1     9   180.000000     2.719600     2
  CG2R53   CG2R53   OG3C51   CG251O     9   180.000000     5.815760     2
  CG2R53   CG2R53   OG3C51   CG251O     9   180.000000     5.481040     3
  CG2R53   CG2R53   OG3C51   CG252O     9   180.000000     5.815760     2
  CG2R53   CG2R53   OG3C51   CG252O     9   180.000000     5.481040     3
  CG2R53   CG2R61   CG2R61   CG2R61     9   180.000000    12.552000     2
  CG2R53   CG2R61   CG2R61    NG2S3     9   180.000000    13.388800     2
  CG2R53   CG2R61   CG2R61    HGR61     9   180.000000     8.368000     2
  CG2R53   CG2R61   CG2RC0   CG2R52     9     0.000000     0.000000     2
  CG2R53   CG2R61   CG2RC0   CG2RC0     9   180.000000    10.125280     2
  CG2R53   CG2R61   NG2R60   CG2R61     9   180.000000    22.928320     2
  CG2R53   CG2R62   CG2R62   CG2R62     9   180.000000    22.468080     2
  CG2R53   CG2R62   CG2R62    HGR62     9   180.000000    18.200400     2
  CG2R53   CG2R62   CG2R63    OG2D4     9   180.000000    27.279680     2
  CG2R53   CG2R62   CG2R63   OG3R60     9   180.000000     6.234160     2
  CG2R53   CG2R64   NG2R61   CG2R63     9   180.000000     3.932960     2
  CG2R53   CG2R64   NG2R61     HGP1     9   180.000000     3.974800     2
  CG2R53   CG2R64   NG2R62   CG2R62     9   180.000000    27.447040     2
  CG2R53   CG2RC0   CG2RC0   CG2R61     9   180.000000     6.276000     2
  CG2R53   CG2RC0   CG2RC0   CG2R62     9   180.000000     6.276000     2
  CG2R53   CG2RC0   CG2RC0   CG3C52     9   180.000000    20.920000     2
  CG2R53   CG2RC0   CG2RC0   NG2R51     9   180.000000    50.208000     2
  CG2R53   CG2RC0   CG2RC0   SG2R50     9   180.000000    35.564000     2
  CG2R53    CG301    CG321    CG321     9     0.000000     0.167360     3
  CG2R53    CG301    CG321     HGA2     9     0.000000     0.836800     3
  CG2R53    CG301    CG331     HGA3     9     0.000000     0.669440     3
  CG2R53    CG301    NG2S1    CG2O1     9     0.000000     1.966480     1
  CG2R53    CG301    NG2S1    CG2O1     9     0.000000     0.041840     2
  CG2R53    CG301    NG2S1    CG2O1     9   180.000000     0.000000     3
  CG2R53    CG301    NG2S1    CG2O1     9     0.000000     0.041840     4
  CG2R53    CG301    NG2S1    CG2O1     9     0.000000     1.213360     6
  CG2R53    CG301    NG2S1     HGP1     9     0.000000     6.443360     1
  CG2R53    CG301    NG321   HGPAM2     9     0.000000    14.225600     1
  CG2R53    CG301    NG321   HGPAM2     9   180.000000     2.050160     3
  CG2R53    CG301    NG321   HGPAM2     9     0.000000     0.376560     6
  CG2R53    CG301    OG311     HGP1     9   180.000000     1.715440     1
  CG2R53    CG301    OG311     HGP1     9     0.000000     0.376560     2
  CG2R53    CG301    OG311     HGP1     9   180.000000     0.083680     3
  CG2R53    CG301    OG311     HGP1     9     0.000000     0.627600     6
  CG2R53    CG311    CG311    CG331     9     0.000000     0.167360     3
  CG2R53    CG311    CG311    OG311     9     0.000000     0.836800     3
  CG2R53    CG311    CG311     HGA1     9     0.000000     0.836800     3
  CG2R53    CG311    CG321    CG2O3     9     0.000000     0.167360     3
  CG2R53    CG311    CG321   CG2R51     9     0.000000     0.167360     3
  CG2R53    CG311    CG321    CG321     9     0.000000     0.167360     3
  CG2R53    CG311    CG321    OG311     9     0.000000     0.836800     3
  CG2R53    CG311    CG321     HGA2     9     0.000000     0.836800     3
  CG2R53    CG311    CG324    NG3P1     9   180.000000    19.539280     3
  CG2R53    CG311    CG324    NG3P1     9   180.000000     7.363840     4
  CG2R53    CG311    CG324    NG3P3     9   180.000000     1.757280     3
  CG2R53    CG311    CG324     HGA2     9     0.000000     0.836800     3
  CG2R53    CG311    CG331     HGA3     9     0.000000     0.669440     3
  CG2R53    CG311    NG2S1    CG2O1     9     0.000000     1.962714     1
  CG2R53    CG311    NG2S1    CG2O1     9     0.000000     0.057739     2
  CG2R53    CG311    NG2S1    CG2O1     9   180.000000     0.006276     3
  CG2R53    CG311    NG2S1    CG2O1     9     0.000000     0.029288     4
  CG2R53    CG311    NG2S1    CG2O1     9     0.000000     1.196624     6
  CG2R53    CG311    NG2S1     HGP1     9     0.000000     6.448799     1
  CG2R53    CG311    NG2S1        C     9     0.000000     1.962714     1
  CG2R53    CG311    NG2S1        C     9     0.000000     0.057739     2
  CG2R53    CG311    NG2S1        C     9   180.000000     0.006276     3
  CG2R53    CG311    NG2S1        C     9     0.000000     0.029288     4
  CG2R53    CG311    NG2S1        C     9     0.000000     1.196624     6
  CG2R53    CG311    NG321   HGPAM2     9     0.000000     2.426720     1
  CG2R53    CG311    NG321   HGPAM2     9     0.000000     2.970640     3
  CG2R53    CG314    CG331     HGA3     9     0.000000     0.669440     3
  CG2R53    CG314    NG3P3     HGP2     9     0.000000     0.000000     3
  CG2R53    CG321    CG321    CG311     9     0.000000     0.167360     3
  CG2R53    CG321    CG321    CG314     9     0.000000     0.167360     3
  CG2R53    CG321    CG321    CG321     9     0.000000     0.167360     3
  CG2R53    CG321    CG321     HGA2     9     0.000000     0.836800     3
  CG2R53    CG321    CG331     HGA3     9     0.000000     0.669440     3
  CG2R53    CG321    NG2S1     HGP1     9     0.000000     0.000000     1
  CG2R53    CG321    NG301    CG321     9   180.000000     5.941280     1
  CG2R53    CG321    NG301    CG321     9     0.000000     3.430880     2
  CG2R53    CG321    NG301    CG321     9     0.000000     4.267680     3
  CG2R53    CG321    NG301    CG331     9   180.000000     5.941280     1
  CG2R53    CG321    NG301    CG331     9     0.000000     3.430880     2
  CG2R53    CG321    NG301    CG331     9     0.000000     4.267680     3
  CG2R53    CG321    NG311    CG321     9   180.000000     5.941280     1
  CG2R53    CG321    NG311    CG321     9     0.000000     3.430880     2
  CG2R53    CG321    NG311    CG321     9     0.000000     4.267680     3
  CG2R53    CG321    NG311   HGPAM1     9   180.000000     4.184000     2
  CG2R53    CG321    NG311   HGPAM1     9     0.000000     3.347200     3
  CG2R53    CG321    NG321   HGPAM2     9     0.000000     2.426720     1
  CG2R53    CG321    NG321   HGPAM2     9     0.000000     2.970640     3
  CG2R53    CG321    OG311     HGP1     9     0.000000     5.104480     1
  CG2R53    CG321    OG311     HGP1     9     0.000000     2.468560     2
  CG2R53    CG321    OG311     HGP1     9     0.000000     2.510400     3
  CG2R53    CG321   OG3C61    CG321     9   180.000000     2.677760     1
  CG2R53    CG321   OG3C61    CG321     9   180.000000     5.230000     2
  CG2R53    CG321   OG3C61    CG321     9     0.000000     4.309520     3
  CG2R53    CG324    NG3P3     HGP2     9     0.000000     3.347200     3
  CG2R53   CG3C31   CG3C31   CG3C31     9     0.000000    13.430640     2
  CG2R53   CG3C31   CG3C31   CG3C31     9   180.000000     0.000000     6
  CG2R53   CG3C31   CG3C31     HGA2     9   180.000000     0.000000     5
  CG2R53   CG3C31   NG2R53   CG2R53     9     0.000000     0.000000     2
  CG2R53   CG3C31   NG2R53   CG2R53     9     0.000000     4.602400     3
  CG2R53   CG3C31   NG2R53     HGP1     9     0.000000     0.000000     1
  CG2R53   CG3C31   NG2R53     HGP1     9     0.000000     0.000000     2
  CG2R53   CG3C41   CG3C41    CG321     9     0.000000     4.058480     2
  CG2R53   CG3C41   CG3C41    CG321     9     0.000000     5.230000     3
  CG2R53   CG3C41   CG3C41   CG3C41     9   180.000000     2.761440     3
  CG2R53   CG3C41   CG3C41   CG3C41     9     0.000000     2.719600     6
  CG2R53   CG3C41   CG3C41   NG2R43     9     0.000000    12.552000     3
  CG2R53   CG3C41   CG3C41    NG311     9     0.000000     3.974800     2
  CG2R53   CG3C41   CG3C41    NG311     9   180.000000     2.259360     3
  CG2R53   CG3C41   CG3C41     HGA1     9     0.000000     2.384880     3
  CG2R53   CG3C41   CG3C41     HGA2     9     0.000000     2.384880     3
  CG2R53   CG3C41   CG3RC1    CG321     9     0.000000     3.681920     2
  CG2R53   CG3C41   CG3RC1    CG321     9     0.000000     0.753120     3
  CG2R53   CG3C41   CG3RC1   NG2R43     9     0.000000     0.251040     2
  CG2R53   CG3C41   CG3RC1   NG2R43     9     0.000000     1.129680     3
  CG2R53   CG3C41   CG3RC1    SG311     9     0.000000     1.087840     2
  CG2R53   CG3C41   CG3RC1    SG311     9     0.000000     0.502080     3
  CG2R53   CG3C41   CG3RC1     HGA1     9     0.000000     0.000000     3
  CG2R53   CG3C41   NG2R53   CG2R53     9     0.000000     0.376560     2
  CG2R53   CG3C41   NG2R53   CG2R53     9   180.000000     3.765600     3
  CG2R53   CG3C41   NG2R53     HGP1     9     0.000000     0.711280     1
  CG2R53   CG3C41   NG2R53     HGP1     9   180.000000     8.577200     2
  CG2R53   CG3C41    NG321   HGPAM2     9     0.000000     0.167360     1
  CG2R53   CG3C41    NG321   HGPAM2     9   180.000000     6.401520     2
  CG2R53   CG3C41    NG321   HGPAM2     9     0.000000     1.799120     3
  CG2R53   CG3C41    SG3O2    CG331     9     0.000000     3.305360     1
  CG2R53   CG3C41    SG3O2    CG331     9   180.000000     0.376560     2
  CG2R53   CG3C41    SG3O2    CG331     9   180.000000     2.008320     3
  CG2R53   CG3C41    SG3O2    OG2P1     9     0.000000     3.389040     3
  CG2R53   CG3C50   CG3C50    CG331     9     0.000000     2.343040     3
  CG2R53   CG3C50   CG3C50    CG331     9   180.000000     6.359680     4
  CG2R53   CG3C50   CG3C50    CG331     9   180.000000     7.447520     6
  CG2R53   CG3C50   CG3C50   CG3C50     9     0.000000     2.384880     2
  CG2R53   CG3C50   CG3C50   CG3C50     9     0.000000     5.439200     3
  CG2R53   CG3C50   CG3C51    CG2O2     9     0.000000     3.054320     3
  CG2R53   CG3C50   CG3C51    CG2O2     9   180.000000     2.510400     4
  CG2R53   CG3C50   CG3C51    CG2O3     9   180.000000     6.024960     3
  CG2R53   CG3C50   CG3C51   CG2R53     9     0.000000     0.000000     2
  CG2R53   CG3C50   CG3C51   CG2R53     9     0.000000     0.627600     3
  CG2R53   CG3C50   CG3C51    CG321     9     0.000000     0.418400     3
  CG2R53   CG3C50   CG3C51    CG321     9   180.000000     0.000000     4
  CG2R53   CG3C50   CG3C51    CG321     9     0.000000     1.129680     6
  CG2R53   CG3C50   CG3C51    CG324     9     0.000000     1.840960     2
  CG2R53   CG3C50   CG3C51    CG324     9     0.000000     4.518720     3
  CG2R53   CG3C50   CG3C51    CG324     9     0.000000     0.292880     4
  CG2R53   CG3C50   CG3C51    CG324     9   180.000000     7.405680     6
  CG2R53   CG3C50   CG3C51    CG331     9   180.000000    19.581120     2
  CG2R53   CG3C50   CG3C51    CG331     9     0.000000     3.849280     3
  CG2R53   CG3C50   CG3C51    CG331     9   180.000000     3.472720     4
  CG2R53   CG3C50   CG3C51    CG331     9   180.000000     2.510400     6
  CG2R53   CG3C50   CG3C51   CG3C52     9   180.000000     1.422560     3
  CG2R53   CG3C50   CG3C51     HGA1     9     0.000000     0.794960     3
  CG2R53   CG3C50   CG3C52   CG2R51     9     0.000000     0.041840     3
  CG2R53   CG3C50   CG3C52   CG2R53     9     0.000000     0.041840     3
  CG2R53   CG3C50   CG3C52   CG2RC0     9   180.000000     0.836800     2
  CG2R53   CG3C50   CG3C52   CG2RC0     9   180.000000     0.669440     3
  CG2R53   CG3C50   CG3C52   CG3C52     9   180.000000     1.422560     3
  CG2R53   CG3C50   CG3C52   CG3RC1     9   180.000000     1.422560     3
  CG2R53   CG3C50   CG3C52    NG2S0     9   180.000000     9.790560     3
  CG2R53   CG3C50   CG3C52    NG2S0     9   180.000000    17.238080     4
  CG2R53   CG3C50   CG3C52   NG3C51     9   180.000000     3.138000     3
  CG2R53   CG3C50   CG3C52   OG3C51     9   180.000000     7.949600     2
  CG2R53   CG3C50   CG3C52   OG3C51     9     0.000000     2.217520     3
  CG2R53   CG3C50   CG3C52    SG311     9     0.000000     1.338880     2
  CG2R53   CG3C50   CG3C52    SG311     9   180.000000     2.426720     3
  CG2R53   CG3C50   CG3C52     HGA2     9     0.000000     0.000000     3
  CG2R53   CG3C50   CG3RC1   CG3C52     9   180.000000    20.083200     2
  CG2R53   CG3C50   CG3RC1   CG3C52     9     0.000000     4.058480     3
  CG2R53   CG3C50   CG3RC1     HGA1     9     0.000000     0.000000     3
  CG2R53   CG3C50   NG2R50   NG2R50     9     0.000000     1.464400     2
  CG2R53   CG3C50   NG2R53   CG2R53     9   180.000000    21.212880     2
  CG2R53   CG3C50   NG2R53   CG2R53     9   180.000000     2.886960     3
  CG2R53   CG3C50   NG2R53    CG331     9   180.000000    11.464160     2
  CG2R53   CG3C50   NG2R53    CG331     9   180.000000     1.255200     3
  CG2R53   CG3C50   NG2R53     HGP1     9     0.000000     1.924640     2
  CG2R53   CG3C50   NG2R53     HGP1     9   180.000000     3.681920     3
  CG2R53   CG3C50    NG311    CG321     9   180.000000     8.368000     1
  CG2R53   CG3C50    NG311    CG321     9     0.000000     2.928800     3
  CG2R53   CG3C50    NG311   HGPAM1     9     0.000000     0.836800     2
  CG2R53   CG3C50   NG3C51    CG321     9     0.000000     0.418400     3
  CG2R53   CG3C50   NG3C51    CG321     9     0.000000     0.627600     6
  CG2R53   CG3C50   NG3C51    CG331     9   180.000000     0.334720     3
  CG2R53   CG3C50   NG3C51   CG3C52     9     0.000000     5.732080     3
  CG2R53   CG3C50    OG311     HGP1     9     0.000000     0.627600     1
  CG2R53   CG3C50    OG311     HGP1     9     0.000000     4.602400     2
  CG2R53   CG3C50    OG311     HGP1     9     0.000000     2.719600     3
  CG2R53   CG3C50   OG3C51   CG2R51     9     0.000000     0.878640     1
  CG2R53   CG3C50   OG3C51   CG2R51     9   180.000000     2.008320     2
  CG2R53   CG3C50   OG3C51   CG2R51     9   180.000000     1.757280     6
  CG2R53   CG3C51   CG3C51   CG2R53     9     0.000000     0.041840     3
  CG2R53   CG3C51   CG3C51    CG321     9   180.000000     3.556400     3
  CG2R53   CG3C51   CG3C51    CG321     9   180.000000     5.773920     4
  CG2R53   CG3C51   CG3C51    CG321     9   180.000000     0.836800     6
  CG2R53   CG3C51   CG3C51   CG3C52     9   180.000000     1.422560     3
  CG2R53   CG3C51   CG3C51   NG2R53     9   180.000000     7.865920     3
  CG2R53   CG3C51   CG3C51   OG3C51     9     0.000000     0.125520     3
  CG2R53   CG3C51   CG3C51     HGA1     9     0.000000     0.794960     3
  CG2R53   CG3C51   CG3C52   CG2R53     9     0.000000     0.031380     3
  CG2R53   CG3C51   CG3C52   CG3C51     9   180.000000     1.422560     3
  CG2R53   CG3C51   CG3C52   CG3C52     9   180.000000     1.422560     3
  CG2R53   CG3C51   CG3C52     HGA2     9     0.000000     0.000000     3
  CG2R53   CG3C51   CG3RC1    CG321     9   180.000000    10.418160     3
  CG2R53   CG3C51   CG3RC1    CG321     9   180.000000     3.054320     4
  CG2R53   CG3C51   CG3RC1    CG321     9     0.000000     2.175680     6
  CG2R53   CG3C51   CG3RC1   CG3RC1     9   180.000000     1.422560     3
  CG2R53   CG3C51   CG3RC1   CG3RC1     9   180.000000     1.255200     4
  CG2R53   CG3C51   CG3RC1     HGA1     9     0.000000     0.000000     3
  CG2R53   CG3C51   NG2R53   CG2R53     9     0.000000     0.878640     2
  CG2R53   CG3C51   NG2R53   CG2R53     9     0.000000    16.777840     3
  CG2R53   CG3C51   NG2R53     HGP1     9     0.000000     0.376560     2
  CG2R53   CG3C51   NG2R53     HGP1     9   180.000000     3.096160     3
  CG2R53   CG3C51    NG2S1    CG2O1     9     0.000000     3.491966     3
  CG2R53   CG3C51    NG2S1     HGP1     9     0.000000     3.671042     1
  CG2R53   CG3C51    NG321   HGPAM2     9   180.000000     3.389040     2
  CG2R53   CG3C51    NG321   HGPAM2     9     0.000000     2.259360     3
  CG2R53   CG3C51   NG3C51   CG2RC0     9     0.000000    11.673360     3
  CG2R53   CG3C51   NG3C51   CG3C52     9   180.000000     8.577200     3
  CG2R53   CG3C51   OG3C51   CG3C50     9     0.000000     0.000000     2
  CG2R53   CG3C51   OG3C51   CG3C50     9   180.000000     0.669440     3
  CG2R53   CG3C51   OG3C51   CG3C52     9   180.000000     0.000000     2
  CG2R53   CG3C51   OG3C51   CG3C52     9     0.000000     8.786400     3
  CG2R53   CG3C51    SG311    CG321     9   180.000000     2.004554     1
  CG2R53   CG3C51    SG311    CG321     9     0.000000     1.559795     3
  CG2R53   CG3C52   CG3C52   CG3C51     9     0.000000     0.000000     2
  CG2R53   CG3C52   CG3C52   CG3C51     9     0.000000     2.175680     3
  CG2R53   CG3C52   CG3C52   CG3C52     9   180.000000     1.422560     3
  CG2R53   CG3C52   CG3C52   CG3C54     9   180.000000     1.422560     3
  CG2R53   CG3C52   CG3C52   CG3RC1     9   180.000000     1.422560     3
  CG2R53   CG3C52   CG3C52     HGA2     9     0.000000     0.000000     3
  CG2R53   CG3C52   CG3C53   CG3C52     9   180.000000     1.422560     3
  CG2R53   CG3C52   CG3C53    NG3P3     9   180.000000     2.510400     3
  CG2R53   CG3C52   CG3C53     HGA1     9     0.000000     0.000000     3
  CG2R53   CG3C52   CG3RC1    CG321     9   180.000000     5.648400     3
  CG2R53   CG3C52   CG3RC1    CG321     9   180.000000     5.146320     4
  CG2R53   CG3C52   CG3RC1    CG321     9   180.000000     0.711280     6
  CG2R53   CG3C52   CG3RC1   CG3RC1     9   180.000000     1.464400     3
  CG2R53   CG3C52   CG3RC1   CG3RC1     9   180.000000     0.376560     6
  CG2R53   CG3C52   CG3RC1     HGA1     9     0.000000     0.000000     3
  CG2R53   CG3C52   NG2R53   CG2R53     9     0.000000     0.000000     2
  CG2R53   CG3C52   NG2R53   CG2R53     9     0.000000     1.840960     3
  CG2R53   CG3C52   NG2R53     HGP1     9   180.000000     4.560560     2
  CG2R53   CG3C52   NG2R53     HGP1     9   180.000000     0.000000     3
  CG2R53   CG3C52   NG3C51   CG2R53     9     0.000000     0.000000     2
  CG2R53   CG3C52   NG3C51   CG2R53     9     0.000000     2.050160     3
  CG2R53   CG3C52   NG3C51    CG331     9     0.000000     0.000000     2
  CG2R53   CG3C52   NG3C51    CG331     9     0.000000     1.631760     3
  CG2R53   CG3C52    SG311   CG2R53     9   180.000000     0.000000     1
  CG2R53   CG3C52    SG311   CG2R53     9   180.000000     6.527040     2
  CG2R53   CG3C52    SG311   CG2R53     9     0.000000     0.418400     3
  CG2R53   CG3C52    SG311   CG2R57     9   180.000000     1.464400     1
  CG2R53   CG3C52    SG311   CG2R57     9   180.000000    10.292640     2
  CG2R53   CG3C52    SG311   CG2R57     9     0.000000     0.209200     3
  CG2R53   CG3C52    SG311   CG3C52     9   180.000000     0.585760     1
  CG2R53   CG3C52    SG311   CG3C52     9     0.000000     0.000000     2
  CG2R53   CG3C52    SG311   CG3C52     9   180.000000     1.255200     3
  CG2R53   CG3C52    SG3O3   CG3C52     9   180.000000     2.635920     1
  CG2R53   CG3C52    SG3O3   CG3C52     9     0.000000     0.251040     3
  CG2R53   CG3C52    SG3O3   CG3C52     9     0.000000     1.882800     4
  CG2R53   CG3C52    SG3O3    OG2P1     9     0.000000     4.058480     3
  CG2R53   CG3C52    SG3O3    OG2P1     9     0.000000     3.849280     4
  CG2R53   CG3C53    NG3P3     HGP2     9     0.000000     1.255200     3
  CG2R53   CG3RC1   CG3RC1   CG2R53     9   180.000000    11.506000     2
  CG2R53   CG3RC1   CG3RC1   CG2R53     9   180.000000     0.376560     3
  CG2R53   CG3RC1   CG3RC1   CG3C53     9     0.000000     0.083680     2
  CG2R53   CG3RC1   CG3RC1   CG3C53     9   180.000000     3.389040     3
  CG2R53   CG3RC1   CG3RC1   CG3C54     9     0.000000     0.041840     2
  CG2R53   CG3RC1   CG3RC1   CG3C54     9   180.000000    13.681680     3
  CG2R53   CG3RC1   CG3RC1     HGA1     9     0.000000     0.000000     3
  CG2R53   CG3RC1   NG2R53   CG2R53     9   180.000000    25.564240     2
  CG2R53   CG3RC1   NG2R53   CG2R53     9   180.000000     9.623200     3
  CG2R53   CG3RC1   NG2R53   CG3C52     9   180.000000    19.120880     2
  CG2R53   CG3RC1   NG2R53   CG3C52     9   180.000000     0.125520     3
  CG2R53   NG2R50   NG2R50   CG2R53     9   180.000000     3.598240     2
  CG2R53   NG2R50   NG2R50   CG2R57     9   180.000000     1.046000     2
  CG2R53   NG2R50   NG2R50   CG2RC0     9   180.000000    16.317600     2
  CG2R53   NG2R50   NG2R50   CG3C51     9   180.000000    42.760480     2
  CG2R53   NG2R50   NG2R50   CG3C53     9   180.000000    27.781760     2
  CG2R53   NG2R50   NG2R50   NG2R50     9   180.000000    64.852000     2
  CG2R53   NG2R50   NG2R50   NG2R51     9   180.000000    58.576000     2
  CG2R53   NG2R50   NG2R51   CG2R51     9   180.000000    50.208000     2
  CG2R53   NG2R50   NG2R51   CG2R53     9   180.000000    41.840000     2
  CG2R53   NG2R50   NG2R51   CG2RC0     9   180.000000    35.564000     2
  CG2R53   NG2R50   NG2R51    CG301     9   180.000000     5.857600     2
  CG2R53   NG2R50   NG2R51    CG321     9   180.000000     5.857600     2
  CG2R53   NG2R50   NG2R51    CG331     9   180.000000     5.857600     2
  CG2R53   NG2R50   NG2R51   NG2R50     9   180.000000    39.748000     2
  CG2R53   NG2R50   NG2R51     HGP1     9   180.000000     9.623200     2
  CG2R53   NG2R50   NG2RC0   CG2R64     9   180.000000    11.213120     2
  CG2R53   NG2R50   NG2RC0   CG2R66     9   180.000000    24.309040     2
  CG2R53   NG2R50   NG2RC0   CG2RC0     9   180.000000    27.698080     2
  CG2R53   NG2R50   NG3C51   CG3C50     9   180.000000     2.092000     2
  CG2R53   NG2R50   NG3C51   CG3C52     9     0.000000     0.000000     2
  CG2R53   NG2R50   NG3C51     HGP1     9     0.000000     2.928800     1
  CG2R53   NG2R50   NG3C51     HGP1     9     0.000000     2.259360     2
  CG2R53   NG2R50   NG3C51     HGP1     9     0.000000     6.401520     3
  CG2R53   NG2R50   OG2R50   CG2R53     9   180.000000    37.656000     2
  CG2R53   NG2R50   OG2R50   NG2R50     9   180.000000    37.865200     2
  CG2R53   NG2R50   SG2R50   CG2R53     9   180.000000    37.656000     2
  CG2R53   NG2R51   NG2R51   CG2RC0     9   180.000000    22.928320     2
  CG2R53   NG2R51   NG2R51    CG331     9     0.000000     8.242480     2
  CG2R53   NG2R51    NG3N1     HGP1     9   180.000000     5.104480     1
  CG2R53   NG2R51    NG3N1     HGP1     9   180.000000     0.292880     3
  CG2R53   NG2R51    NG3N1     HGP1     9     0.000000     0.460240     6
  CG2R53   NG2R51    OG311     HGP1     9   180.000000     0.334720     1
  CG2R53   NG2R51    OG311     HGP1     9     0.000000     4.435040     2
  CG2R53   NG2R51    OG311     HGP1     9   180.000000     1.171520     3
  CG2R53   NG2R51    OG311     HGP1     9   180.000000     0.460240     4
  CG2R53   NG2R51      PG2    OG2P1     9     0.000000     0.478231     3
  CG2R53   NG2R51      PG2    OG2P1     9     0.000000     1.931753     4
  CG2R53   NG2R51   SG2R50   CG2R51     9   180.000000    35.103760     2
  CG2R53   NG2R51   SG2R50   CG2RC0     9   180.000000    15.690000     2
  CG2R53   NG2R51    SG311     HGP3     9     0.000000     4.769760     2
  CG2R53   NG2R51     CN7B     CN7B     9   180.000000     0.000000     3
  CG2R53   NG2R51     CN7B     ON6B     9     0.000000     4.602400     1
  CG2R53   NG2R51     CN7B      HN7     9   180.000000     1.046000     2
  CG2R53   NG2R51     CN7B      HN7     9     0.000000     0.815880     3
  CG2R53   NG2R51     CN7B      CN8     9   180.000000     0.000000     3
  CG2R53   NG2R51     CN7B      ON6     9     0.000000     4.602400     1
  CG2R53   NG2R52    NG3N1     HGP1     9     0.000000     3.556400     1
  CG2R53   NG2R52    NG3N1     HGP1     9     0.000000    10.669200     2
  CG2R53   NG2R52    NG3N1     HGP1     9     0.000000     0.292880     3
  CG2R53   NG2R52    NG3N1     HGP1     9   180.000000     0.125520     6
  CG2R53   NG2R52    OG311     HGP1     9     0.000000     9.037440     1
  CG2R53   NG2R52    OG311     HGP1     9     0.000000     6.401520     2
  CG2R53   NG2R52    OG311     HGP1     9   180.000000     0.209200     3
  CG2R53   NG2R52     CN7B     CN7B     9   180.000000     3.556400     3
  CG2R53   NG2R52     CN7B     ON6B     9     0.000000     2.928800     1
  CG2R53   NG2R52     CN7B      HN7     9   180.000000     0.000000     3
  CG2R53   NG2R53   NG2R53   CG2R53     9     0.000000     0.000000     2
  CG2R53   NG2R53   NG2R53    CG331     9   180.000000    26.442880     2
  CG2R53   NG2R53   NG2R53     HGP1     9     0.000000     0.167360     2
  CG2R53   NG2R53   NG3C51   CG3C51     9   180.000000     3.974800     2
  CG2R53   NG2R53   NG3C51   CG3C51     9   180.000000     1.004160     4
  CG2R53   NG2R53   NG3C51   CG3C52     9     0.000000     1.087840     2
  CG2R53   NG2R53    SG311   CG2R53     9   180.000000     0.041840     1
  CG2R53   NG2R53    SG311   CG2R53     9   180.000000    17.154400     2
  CG2R53   NG2R53    SG311   CG2R53     9   180.000000    12.259120     3
  CG2R53   NG2R53    SG311   CG2R53     9   180.000000     8.911920     4
  CG2R53   NG2R53    SG311   CG2R53     9     0.000000     5.773920     6
  CG2R53   NG2R53    SG3O2   CG2R51     9     0.000000     0.167360     2
  CG2R53   NG2R53    SG3O2   CG2R51     9     0.000000     6.945440     3
  CG2R53   NG2R53    SG3O2    OG2P1     9   180.000000     0.669440     3
  CG2R53   NG3C51   OG3C51   CG3C41     9     0.000000     0.167360     2
  CG2R53   NG3C51   OG3C51   CG3C41     9     0.000000    10.711040     3
  CG2R53    NG3N1    NG3N1     HGP1     9   180.000000     6.694400     2
  CG3C52   CG251O   CG251O   NG2R50     9   180.000000    10.083440     2
  CG3C52   CG251O    CG2D2     HGA5     9   180.000000    11.631520     2
  CG3C52   CG251O   NG3C51   CG3C52     9   180.000000    13.137760     2
  CG3C52   CG251O   NG3C51   CG3C52     9     0.000000     1.840960     6
  CG3C52   CG251O   NG3C51     HGP1     9   180.000000     4.560560     2
  CG3C52   CG251O   NG3C51     HGP1     9     0.000000     0.000000     3
  CG3C52   CG251O   NG3C51     HGP1     9     0.000000     0.125520     6
  CG3C52   CG252O   CG252O   NG2R50     9   180.000000    10.083440     2
  CG3C52   CG252O    CG2D2     HGA5     9   180.000000    11.631520     2
  CG3C52   CG252O   NG3C51   CG3C52     9   180.000000    13.137760     2
  CG3C52   CG252O   NG3C51   CG3C52     9     0.000000     1.840960     6
  CG3C52   CG252O   NG3C51     HGP1     9   180.000000     4.560560     2
  CG3C52   CG252O   NG3C51     HGP1     9     0.000000     0.000000     3
  CG3C52   CG252O   NG3C51     HGP1     9     0.000000     0.125520     6
  CG3C52   CG25C1   CG2D1O    NG301     9     0.000000     0.627600     2
  CG3C52   CG25C1   CG2D1O     HGA4     9   180.000000    18.995360     2
  CG3C52   CG25C1   CG2DC1    CG2O3     9   180.000000    20.041360     2
  CG3C52   CG25C1   CG2DC1     HGA4     9   180.000000    13.221440     2
  CG3C52   CG25C1   CG2R53   NG2R53     9   180.000000     4.016640     2
  CG3C52   CG25C1   CG2R53    OG2D1     9   180.000000    10.627360     2
  CG3C52   CG25C1   CG3C52   CG2RC0     9   180.000000     4.058480     2
  CG3C52   CG25C1   CG3C52   CG2RC0     9     0.000000     0.669440     3
  CG3C52   CG25C1   CG3C52   CG2RC0     9     0.000000     1.548080     4
  CG3C52   CG25C1   CG3C52   CG3C52     9     0.000000     0.585760     2
  CG3C52   CG25C1   CG3C52     HGA2     9   180.000000     0.000000     3
  CG3C52   CG25C1    NG2D1   CG2R64     9   180.000000     2.845120     1
  CG3C52   CG25C1    NG2D1   CG2R64     9   180.000000    33.639360     2
  CG3C52   CG25C2   CG2D2O    NG301     9     0.000000     0.627600     2
  CG3C52   CG25C2   CG2D2O     HGA4     9   180.000000    18.995360     2
  CG3C52   CG25C2   CG2DC2    CG2O3     9   180.000000    20.041360     2
  CG3C52   CG25C2   CG2DC2     HGA4     9   180.000000    13.221440     2
  CG3C52   CG25C2   CG2R53   NG2R53     9   180.000000     4.016640     2
  CG3C52   CG25C2   CG2R53    OG2D1     9   180.000000    10.627360     2
  CG3C52   CG25C2   CG3C52   CG2RC0     9   180.000000     4.058480     2
  CG3C52   CG25C2   CG3C52   CG2RC0     9     0.000000     0.669440     3
  CG3C52   CG25C2   CG3C52   CG2RC0     9     0.000000     1.548080     4
  CG3C52   CG25C2   CG3C52   CG3C52     9     0.000000     0.585760     2
  CG3C52   CG25C2   CG3C52     HGA2     9   180.000000     0.000000     3
  CG3C52   CG25C2    NG2D1   CG2R64     9   180.000000     2.845120     1
  CG3C52   CG25C2    NG2D1   CG2R64     9   180.000000    33.639360     2
  CG3C52    CG2D1    CG2D1     HGA4     9   180.000000    24.936640     2
  CG3C52    CG2D1   CG3C52   CG3C51     9     0.000000    15.941040     3
  CG3C52    CG2D1   CG3C52   CG3C52     9     0.000000     0.794960     2
  CG3C52    CG2D1   CG3C52   CG3C52     9     0.000000     3.932960     3
  CG3C52    CG2D1   CG3C52     HGA2     9     0.000000     0.000000     3
  CG3C52    CG2O5   CG3C50    CG331     9   180.000000     0.962320     1
  CG3C52    CG2O5   CG3C50    CG331     9     0.000000     1.506240     2
  CG3C52    CG2O5   CG3C50    CG331     9     0.000000     0.502080     3
  CG3C52    CG2O5   CG3C50    CG331     9   180.000000     0.251040     6
  CG3C52    CG2O5   CG3C50   OG3C51     9     0.000000     8.451680     1
  CG3C52    CG2O5   CG3C50   OG3C51     9   180.000000    12.091760     2
  CG3C52    CG2O5   CG3C50   OG3C51     9     0.000000     3.054320     3
  CG3C52    CG2O5   CG3C50   OG3C51     9     0.000000     2.008320     6
  CG3C52    CG2O5   CG3C51    CG331     9     0.000000     6.276000     1
  CG3C52    CG2O5   CG3C51    CG331     9   180.000000     2.761440     2
  CG3C52    CG2O5   CG3C51    CG331     9     0.000000     2.552240     3
  CG3C52    CG2O5   CG3C51    CG331     9     0.000000     1.380720     6
  CG3C52    CG2O5   CG3C51   CG3C52     9     0.000000     0.125520     1
  CG3C52    CG2O5   CG3C51   CG3C52     9     0.000000     0.000000     2
  CG3C52    CG2O5   CG3C51   CG3C52     9   180.000000     4.142160     3
  CG3C52    CG2O5   CG3C51   CG3C52     9   180.000000     1.380720     6
  CG3C52    CG2O5   CG3C51     HGA1     9     0.000000     0.000000     3
  CG3C52    CG2O5   CG3C52   CG2R51     9     0.000000    11.631520     1
  CG3C52    CG2O5   CG3C52   CG2R51     9     0.000000     0.460240     2
  CG3C52    CG2O5   CG3C52   CG2RC0     9   180.000000     2.426720     1
  CG3C52    CG2O5   CG3C52   CG2RC0     9   180.000000     2.719600     2
  CG3C52    CG2O5   CG3C52   CG3C52     9     0.000000     0.000000     1
  CG3C52    CG2O5   CG3C52   CG3C52     9   180.000000     9.330320     2
  CG3C52    CG2O5   CG3C52   CG3C52     9     0.000000    12.928560     3
  CG3C52    CG2O5   CG3C52   CG3C52     9     0.000000     2.259360     6
  CG3C52    CG2O5   CG3C52   CG3RC1     9   180.000000     0.543920     1
  CG3C52    CG2O5   CG3C52   CG3RC1     9     0.000000     0.083680     2
  CG3C52    CG2O5   CG3C52   CG3RC1     9     0.000000     4.058480     3
  CG3C52    CG2O5   CG3C52   CG3RC1     9   180.000000     1.506240     6
  CG3C52    CG2O5   CG3C52   NG3C51     9     0.000000     0.711280     1
  CG3C52    CG2O5   CG3C52   NG3C51     9     0.000000     1.213360     2
  CG3C52    CG2O5   CG3C52   NG3C51     9     0.000000     3.723760     3
  CG3C52    CG2O5   CG3C52   NG3C51     9     0.000000     3.430880     6
  CG3C52    CG2O5   CG3C52     HGA2     9     0.000000     0.000000     3
  CG3C52   CG2R51   CG2R51   CG3C52     9   180.000000    50.208000     2
  CG3C52   CG2R51   CG2R51   CG3C53     9   180.000000    50.208000     2
  CG3C52   CG2R51   CG2R51   CG3RC1     9   180.000000    24.769280     2
  CG3C52   CG2R51   CG2R51   NG2R50     9   180.000000    31.380000     2
  CG3C52   CG2R51   CG2R51   NG2R51     9   180.000000    56.818720     2
  CG3C52   CG2R51   CG2R51   NG2RC0     9     0.000000     1.799120     2
  CG3C52   CG2R51   CG2R51    NG321     9   180.000000     3.096160     2
  CG3C52   CG2R51   CG2R51   NG3C51     9   180.000000    46.024000     2
  CG3C52   CG2R51   CG2R51    NG3P1     9   180.000000    43.932000     2
  CG3C52   CG2R51   CG2R51    NG3P2     9   180.000000    43.932000     2
  CG3C52   CG2R51   CG2R51   OG3C51     9   180.000000    37.195760     2
  CG3C52   CG2R51   CG2R51   SG2R50     9   180.000000    58.617840     2
  CG3C52   CG2R51   CG2R51    SG311     9   180.000000    34.894560     2
  CG3C52   CG2R51   CG2R51    HGR51     9   180.000000    12.133600     2
  CG3C52   CG2R51   CG2R51    HGR52     9   180.000000    24.267200     2
  CG3C52   CG2R51   CG2R52    CG2O3     9   180.000000     2.761440     2
  CG3C52   CG2R51   CG2R52   CG2R61     9   180.000000    15.146080     2
  CG3C52   CG2R51   CG2R52    CG302     9     0.000000     0.041840     2
  CG3C52   CG2R51   CG2R52    CG331     9   180.000000    25.229520     2
  CG3C52   CG2R51   CG2R52   CG3C52     9   180.000000    50.208000     2
  CG3C52   CG2R51   CG2R52   NG2R50     9   180.000000    31.380000     2
  CG3C52   CG2R51   CG2R57   CG2R57     9   180.000000    16.694160     2
  CG3C52   CG2R51   CG2R57   NG3C51     9   180.000000    47.446560     2
  CG3C52   CG2R51   CG2R61   CG2R61     9     0.000000     1.255200     2
  CG3C52   CG2R51   CG2R61   CG2R61     9   180.000000     4.142160     4
  CG3C52   CG2R51   CG2R61   NG2R60     9   180.000000    11.213120     2
  CG3C52   CG2R51   CG2R61   NG2R60     9   180.000000     0.585760     4
  CG3C52   CG2R51   CG2R61   NG2R62     9   180.000000     1.255200     2
  CG3C52   CG2R51   CG2R61   NG2R62     9     0.000000     0.962320     4
  CG3C52   CG2R51   CG2R61   NG2R62     9     0.000000     3.096160     6
  CG3C52   CG2R51   CG2RC0   CG2R61     9   180.000000    20.836320     2
  CG3C52   CG2R51   CG2RC0   CG2RC0     9   180.000000    10.794720     2
  CG3C52   CG2R51    CG301    CG2N2     9     0.000000     6.819920     2
  CG3C52   CG2R51    CG301    CG2N2     9     0.000000     0.418400     4
  CG3C52   CG2R51    CG301    CG331     9   180.000000     2.175680     1
  CG3C52   CG2R51    CG301    CG331     9     0.000000     1.213360     2
  CG3C52   CG2R51    CG301    CG331     9   180.000000     5.146320     3
  CG3C52   CG2R51    CG321    CG321     9     0.000000     0.000000     2
  CG3C52   CG2R51    CG321    CG321     9   180.000000     4.476880     3
  CG3C52   CG2R51    CG321    SG301     9     0.000000     4.289855     2
  CG3C52   CG2R51    CG321     HGA2     9     0.000000     1.807906     3
  CG3C52   CG2R51    CG331     HGA3     9     0.000000     1.464400     3
  CG3C52   CG2R51   CG3RC1    CG321     9   180.000000     1.631760     3
  CG3C52   CG2R51   CG3RC1   CG3C52     9     0.000000     0.125520     2
  CG3C52   CG2R51   CG3RC1   CG3C52     9   180.000000     8.451680     3
  CG3C52   CG2R51   CG3RC1     HGA1     9   180.000000     0.000000     3
  CG3C52   CG2R51    NG2D1    NG2D1     9   180.000000    37.488640     2
  CG3C52   CG2R51    NG2D1    NG2D1     9   180.000000     0.334720     4
  CG3C52   CG2R51   NG2R50   CG2R53     9   180.000000    23.597760     2
  CG3C52   CG2R51   NG2R50   CG2RC0     9   180.000000    54.392000     2
  CG3C52   CG2R51   NG2R51   CG2R53     9   180.000000     4.853440     2
  CG3C52   CG2R51   NG2R51   CG2RC0     9   180.000000    49.245680     2
  CG3C52   CG2R51   NG2R51    CG331     9     0.000000     0.292880     2
  CG3C52   CG2R51   NG2R51   CG3C52     9     0.000000     0.209200     2
  CG3C52   CG2R51   NG2R51   NG2R50     9   180.000000    52.551040     2
  CG3C52   CG2R51   NG2R51     HGP1     9   180.000000     2.301200     2
  CG3C52   CG2R51   NG2RC0   CG2R61     9   180.000000     3.640080     2
  CG3C52   CG2R51   NG2RC0   CG2RC0     9     0.000000     0.460240     2
  CG3C52   CG2R51    NG2S1    CG2O1     9   180.000000     0.251040     2
  CG3C52   CG2R51    NG2S1     HGP1     9     0.000000     0.000000     2
  CG3C52   CG2R51   OG2R50   NG2R50     9   180.000000    53.011280     2
  CG3C52   CG2R51    OG311     HGP1     9   180.000000    11.757040     2
  CG3C52   CG2R51   SG2R50   CG2R51     9   180.000000    36.484480     2
  CG3C52   CG2R51    SG311    NG2P1     9     0.000000     0.962320     1
  CG3C52   CG2R51    SG311    NG2P1     9   180.000000     8.786400     2
  CG3C52   CG2R52    CG331     HGA3     9     0.000000     1.464400     3
  CG3C52   CG2R52   NG2R50   CG2R51     9   180.000000    27.196000     2
  CG3C52   CG2R52   NG2R50   CG2RC0     9   180.000000    54.392000     2
  CG3C52   CG2R52   NG2R50   CG3C52     9     0.000000     0.000000     2
  CG3C52   CG2R52   NG2R50   NG2R51     9   180.000000    82.173760     2
  CG3C52   CG2R52   NG2R50    NG2S0     9   180.000000    86.943520     2
  CG3C52   CG2R52   NG2R50   NG3C51     9   180.000000    71.128000     2
  CG3C52   CG2R52    SG3O3   CG3C52     9   180.000000     1.715440     1
  CG3C52   CG2R52    SG3O3   CG3C52     9   180.000000     0.167360     2
  CG3C52   CG2R52    SG3O3   CG3RC1     9   180.000000     0.000000     1
  CG3C52   CG2R52    SG3O3   CG3RC1     9     0.000000     0.000000     2
  CG3C52   CG2R52    SG3O3   NG3C51     9     0.000000     0.502080     1
  CG3C52   CG2R52    SG3O3   NG3C51     9   180.000000     0.000000     2
  CG3C52   CG2R52    SG3O3    OG2P1     9   180.000000     4.058480     2
  CG3C52   CG2R52    SG3O3    OG2P1     9     0.000000     0.083680     6
  CG3C52   CG2R53   NG2R50   CG2R53     9   180.000000    26.568400     2
  CG3C52   CG2R53   NG2R50   CG2R57     9   180.000000    26.944960     2
  CG3C52   CG2R53   NG2R50   CG3C52     9     0.000000     0.711280     2
  CG3C52   CG2R53   NG2R52   CG2R51     9   180.000000    22.509920     2
  CG3C52   CG2R53   NG2R52   CG3C54     9   180.000000    15.020560     2
  CG3C52   CG2R53   NG2R52     HGP2     9     0.000000     1.255200     2
  CG3C52   CG2R53   NG2R53   CG2R53     9   180.000000     0.836800     2
  CG3C52   CG2R53   NG2R53   CG2R61     9     0.000000     1.464400     2
  CG3C52   CG2R53   NG2R53   CG2RC0     9   180.000000     0.836800     2
  CG3C52   CG2R53   NG2R53    CG301     9   180.000000     0.836800     2
  CG3C52   CG2R53   NG2R53    CG311     9   180.000000     0.836800     2
  CG3C52   CG2R53   NG2R53    CG321     9   180.000000     0.836800     2
  CG3C52   CG2R53   NG2R53    CG331     9   180.000000     0.836800     2
  CG3C52   CG2R53   NG2R53   CG3C51     9   180.000000     1.129680     2
  CG3C52   CG2R53   NG2R53   CG3C52     9   180.000000     1.673600     2
  CG3C52   CG2R53   NG2R53   CG3RC1     9   180.000000     1.673600     2
  CG3C52   CG2R53   NG2R53     HGP1     9   180.000000     5.313680     2
  CG3C52   CG2R53   NG3C51   CG3C50     9   180.000000   105.436800     2
  CG3C52   CG2R53   NG3C51   CG3C52     9   180.000000    22.342560     2
  CG3C52   CG2R53   OG3C51   CG2R51     9   180.000000     1.238464     2
  CG3C52   CG2R53   OG3C51   CG2R51     9   180.000000     2.142208     3
  CG3C52   CG2R53   OG3C51   CG3C51     9   180.000000    15.899200     2
  CG3C52   CG2R53   OG3C51   CG3C52     9   180.000000    15.899200     2
  CG3C52   CG2R53   OG3C51   CG3RC1     9     0.000000     0.209200     2
  CG3C52   CG2R53    SG311   CG3C51     9   180.000000     0.167360     1
  CG3C52   CG2R53    SG311   CG3C51     9   180.000000    25.857120     2
  CG3C52   CG2R57   CG2R57   NG2R50     9     0.000000     0.502080     2
  CG3C52   CG2R57   CG2R57   NG2R50     9   180.000000     3.849280     4
  CG3C52   CG2R57   CG2R57   OG2R50     9     0.000000     0.376560     2
  CG3C52   CG2R57   CG2R57   OG2R50     9     0.000000     4.853440     4
  CG3C52   CG2R57   CG3C51   CG3C52     9     0.000000     2.468560     3
  CG3C52   CG2R57   CG3C51     HGA1     9   180.000000     0.000000     3
  CG3C52   CG2RC0   CG2RC0   CG3C52     9   180.000000    25.104418     2
  CG3C52   CG2RC0   CG2RC0   CG3C53     9   180.000000    18.618800     2
  CG3C52   CG2RC0   CG2RC0   CG3RC1     9   180.000000    25.104000     2
  CG3C52   CG2RC0   CG2RC0   NG2R50     9   180.000000    27.196000     2
  CG3C52   CG2RC0   CG2RC0   NG2R53     9   180.000000    12.552000     2
  CG3C52   CG2RC0   CG2RC0   NG2R61     9     0.000000     0.000000     2
  CG3C52   CG2RC0   CG2RC0   NG2R62     9   180.000000    22.091520     2
  CG3C52   CG2RC0   CG2RC0    NG2S0     9   180.000000    26.526560     2
  CG3C52   CG2RC0   CG2RC0   NG3C51     9   180.000000    25.104000     2
  CG3C52   CG2RC0   CG2RC0   OG3C51     9     0.000000    17.698320     2
  CG3C52   CG2RC0   CG2RC0    SG311     9   180.000000    34.015920     2
  CG3C52   CG2RC0   CG2RC0    BG201     9   180.000000     9.550817     2
  CG3C52   CG2RC0   NG2R61   CG2R62     9   180.000000     2.343040     2
  CG3C52   CG2RC0   NG2R61   CG2R63     9     0.000000     0.000000     2
  CG3C52   CG2RC0   NG2R61    CG324     9   180.000000     9.455840     2
  CG3C52   CG2RC0   NG2R61   CG3C52     9   180.000000    29.497200     2
  CG3C52   CG2RC0   NG2R61     HGP2     9   180.000000     6.066800     2
  CG3C52   CG2RC0   NG2R62   CG2R62     9   180.000000    26.150000     2
  CG3C52   CG2RC0   NG2RC0   CG2R62     9   180.000000    37.070240     2
  CG3C52   CG2RC0   NG2RC0   CG3C54     9   180.000000    29.329840     2
  CG3C52   CG3C31   CG3C31     HGA1     9   180.000000     0.000000     5
  CG3C52   CG3C31   CG3C31     HGA2     9   180.000000     0.000000     5
  CG3C52   CG3C31   CG3C54    NG3P2     9   180.000000     0.543920     3
  CG3C52   CG3C31   CG3C54    NG3P2     9     0.000000     0.334720     4
  CG3C52   CG3C31   CG3C54     HGA2     9     0.000000     0.000000     1
  CG3C52   CG3C31   CG3C54     HGA2     9     0.000000     0.000000     3
  CG3C52   CG3C41   CG3C41    NG301     9     0.000000     1.297040     3
  CG3C52   CG3C41   CG3C41    NG301     9     0.000000     0.376560     6
  CG3C52   CG3C41   CG3C41     HGA2     9     0.000000     0.000000     3
  CG3C52   CG3C41   CG3C52   CG3C52     9     0.000000     5.271840     3
  CG3C52   CG3C41   CG3C52   CG3C52     9   180.000000     1.715440     4
  CG3C52   CG3C41   CG3C52     HGA2     9     0.000000     0.000000     3
  CG3C52   CG3C41   OG3C51   CG2R53     9   180.000000     1.966480     2
  CG3C52   CG3C50   CG3C50   CG3C52     9     0.000000     3.138000     3
  CG3C52   CG3C50   CG3C50   CG3C52     9     0.000000     8.619040     4
  CG3C52   CG3C50   CG3C50   CG3C52     9   180.000000     4.727920     6
  CG3C52   CG3C50   CG3C50    NG321     9   180.000000     0.000000     3
  CG3C52   CG3C50   CG3C50    NG321     9     0.000000     0.083680     6
  CG3C52   CG3C50   CG3C50    NG3P3     9   180.000000     2.217520     3
  CG3C52   CG3C50   CG3C50   OG3C51     9     0.000000     3.640080     3
  CG3C52   CG3C50   CG3C50   OG3C51     9     0.000000     3.974800     4
  CG3C52   CG3C50   CG3C51    CG2O2     9   180.000000     2.259360     3
  CG3C52   CG3C50   CG3C51    CG2O3     9   180.000000     5.481040     2
  CG3C52   CG3C50   CG3C51    CG2O3     9   180.000000     1.966480     3
  CG3C52   CG3C50   CG3C51   CG2R53     9   180.000000     1.422560     3
  CG3C52   CG3C50   CG3C51    CG321     9     0.000000     0.794960     3
  CG3C52   CG3C50   CG3C51    CG324     9   180.000000     0.292880     2
  CG3C52   CG3C50   CG3C51    CG324     9     0.000000     0.543920     3
  CG3C52   CG3C50   CG3C51    CG331     9     0.000000     0.794960     3
  CG3C52   CG3C50   CG3C51   CG3C51     9   180.000000     1.715440     3
  CG3C52   CG3C50   CG3C51   CG3C52     9   180.000000     1.715440     3
  CG3C52   CG3C50   CG3C51    OG311     9     0.000000     0.836800     3
  CG3C52   CG3C50   CG3C51     HGA1     9     0.000000     0.794960     3
  CG3C52   CG3C50   CG3C52   CG2R51     9     0.000000     0.000000     2
  CG3C52   CG3C50   CG3C52   CG2R51     9   180.000000     0.125520     3
  CG3C52   CG3C50   CG3C52   CG2R51     9     0.000000     2.050160     6
  CG3C52   CG3C50   CG3C52   CG2R53     9   180.000000     1.422560     3
  CG3C52   CG3C50   CG3C52   CG2RC0     9   180.000000     1.338880     3
  CG3C52   CG3C50   CG3C52   CG2RC0     9     0.000000     2.635920     4
  CG3C52   CG3C50   CG3C52   CG2RC0     9     0.000000     5.690240     6
  CG3C52   CG3C50   CG3C52   CG3C51     9   180.000000     1.715440     3
  CG3C52   CG3C50   CG3C52   CG3C52     9   180.000000     1.715440     3
  CG3C52   CG3C50   CG3C52   CG3C54     9   180.000000     1.297040     6
  CG3C52   CG3C50   CG3C52    NG2S0     9     0.000000     0.585760     3
  CG3C52   CG3C50   CG3C52   NG3C51     9     0.000000     2.886960     3
  CG3C52   CG3C50   CG3C52   OG3C51     9     0.000000     0.000000     3
  CG3C52   CG3C50   CG3C52    SG311     9     0.000000     0.292880     2
  CG3C52   CG3C50   CG3C52    SG311     9     0.000000    13.430640     3
  CG3C52   CG3C50   CG3C52     HGA2     9     0.000000     0.000000     3
  CG3C52   CG3C50   CG3C53   CG3C52     9   180.000000     1.715440     3
  CG3C52   CG3C50   CG3C53    NG3P3     9     0.000000     0.585760     3
  CG3C52   CG3C50   CG3C53     HGA1     9     0.000000     0.836800     3
  CG3C52   CG3C50   CG3C54    NG3P2     9     0.000000     9.539520     3
  CG3C52   CG3C50   CG3C54    NG3P2     9   180.000000     8.368000     6
  CG3C52   CG3C50   CG3C54     HGA2     9     0.000000     0.794960     3
  CG3C52   CG3C50   CG3RC1    CG321     9   180.000000     9.204800     2
  CG3C52   CG3C50   CG3RC1    CG321     9     0.000000    16.736000     3
  CG3C52   CG3C50   CG3RC1    CG321     9   180.000000     2.301200     6
  CG3C52   CG3C50   CG3RC1   CG3C52     9     0.000000     0.000000     3
  CG3C52   CG3C50   CG3RC1   CG3RC1     9     0.000000     0.627600     3
  CG3C52   CG3C50   CG3RC1     HGA1     9     0.000000     0.627600     3
  CG3C52   CG3C50   NG2R50   NG2R50     9   180.000000     3.389040     2
  CG3C52   CG3C50   NG2R50   NG2R50     9     0.000000     1.297040     3
  CG3C52   CG3C50   NG2R53   CG2R53     9   180.000000     2.677760     2
  CG3C52   CG3C50   NG2R53   CG2R53     9     0.000000     8.577200     3
  CG3C52   CG3C50   NG2R53     HGP1     9     0.000000     8.702720     2
  CG3C52   CG3C50   NG2R53     HGP1     9     0.000000     1.046000     3
  CG3C52   CG3C50    NG2S0    CG2O1     9     0.000000     3.347200     3
  CG3C52   CG3C50    NG2S0    CG2O6     9     0.000000     3.347200     3
  CG3C52   CG3C50    NG2S0    CG321     9   180.000000     1.966480     3
  CG3C52   CG3C50    NG2S0    CG321     9   180.000000     1.464400     6
  CG3C52   CG3C50    NG2S0   CG3C52     9     0.000000     0.418400     3
  CG3C52   CG3C50    NG2S0   NG2R50     9     0.000000     1.548080     2
  CG3C52   CG3C50    NG2S0   NG2R50     9   180.000000     2.175680     3
  CG3C52   CG3C50    NG2S1    CG2O1     9     0.000000     6.819920     3
  CG3C52   CG3C50    NG2S1     HGP1     9     0.000000     2.594080     1
  CG3C52   CG3C50    NG301    CG321     9     0.000000     0.669440     1
  CG3C52   CG3C50    NG301    CG321     9   180.000000     7.740400     3
  CG3C52   CG3C50    NG301    CG321     9     0.000000     1.338880     6
  CG3C52   CG3C50    NG311   CG2R61     9     0.000000     1.171520     3
  CG3C52   CG3C50    NG311   HGPAM1     9     0.000000     0.836800     2
  CG3C52   CG3C50    NG321   HGPAM2     9   180.000000     0.125520     3
  CG3C52   CG3C50   NG3C51   CG2R53     9     0.000000     2.092000     3
  CG3C52   CG3C50   NG3C51   CG2R53     9   180.000000     4.309520     6
  CG3C52   CG3C50   NG3C51    CG321     9     0.000000     5.815760     3
  CG3C52   CG3C50   NG3C51    CG331     9     0.000000     5.815760     3
  CG3C52   CG3C50   NG3C51   CG3C52     9     0.000000     0.753120     3
  CG3C52   CG3C50   NG3C51    SG3O2     9     0.000000     4.686080     3
  CG3C52   CG3C50   NG3C51    SG3O2     9   180.000000     0.920480     6
  CG3C52   CG3C50   NG3C51     HGP1     9     0.000000     2.301200     1
  CG3C52   CG3C50   NG3C51     HGP1     9     0.000000     3.556400     3
  CG3C52   CG3C50    NG3P1    CG324     9     0.000000     0.878640     1
  CG3C52   CG3C50    NG3P1    CG324     9     0.000000     1.506240     3
  CG3C52   CG3C50    NG3P1     HGP2     9   180.000000     0.000000     3
  CG3C52   CG3C50    NG3P2    CG314     9   180.000000     3.347200     1
  CG3C52   CG3C50    NG3P2    CG314     9     0.000000     0.334720     3
  CG3C52   CG3C50    NG3P2     HGP2     9     0.000000     0.334720     3
  CG3C52   CG3C50    NG3P3     HGP2     9     0.000000     0.334720     3
  CG3C52   CG3C50    OG311     HGP1     9     0.000000     1.213360     1
  CG3C52   CG3C50    OG311     HGP1     9     0.000000     2.594080     2
  CG3C52   CG3C50    OG311     HGP1     9     0.000000     0.209200     3
  CG3C52   CG3C50   OG3C51   CG2R51     9     0.000000     0.083680     2
  CG3C52   CG3C50   OG3C51   CG2R51     9     0.000000     0.711280     3
  CG3C52   CG3C50   OG3C51   CG3C50     9     0.000000     2.092000     3
  CG3C52   CG3C50   OG3C51   CG3C52     9     0.000000     2.092000     3
  CG3C52   CG3C50   OG3C61    CG311     9     0.000000     1.255200     1
  CG3C52   CG3C50   OG3C61    CG311     9   180.000000     0.292880     3
  CG3C52   CG3C50   OG3C61    CG311     9     0.000000     1.506240     4
  CG3C52   CG3C50   OG3C61    CG321     9     0.000000     2.928800     1
  CG3C52   CG3C50   OG3C61    CG321     9   180.000000     2.594080     3
  CG3C52   CG3C50   OG3C61    CG321     9   180.000000     0.669440     4
  CG3C52   CG3C50   OG3R60   CG2R61     9     0.000000     3.807440     1
  CG3C52   CG3C50   OG3R60   CG2R61     9   180.000000     1.464400     3
  CG3C52   CG3C50    SG311   CG2R53     9   180.000000     2.635920     1
  CG3C52   CG3C50    SG311   CG2R53     9     0.000000     1.338880     2
  CG3C52   CG3C50    SG311   CG2R53     9     0.000000    10.752880     3
  CG3C52   CG3C50    SG311   CG3C52     9     0.000000     6.108640     1
  CG3C52   CG3C50    SG311   CG3C52     9   180.000000     0.962320     3
  CG3C52   CG3C50    SG311   CG3C52     9     0.000000     4.225840     6
  CG3C52   CG3C50    CG2O1      NH1     9     0.000000     1.673600     1
  CG3C52   CG3C50    CG2O1      NH1     9     0.000000     2.510400     2
  CG3C52   CG3C50    CG2O1        N     9     0.000000     0.000000     1
  CG3C52   CG3C51   CG3C51   CG3C52     9   180.000000     1.715440     3
  CG3C52   CG3C51   CG3C51   CG3RC1     9     0.000000     0.627600     3
  CG3C52   CG3C51   CG3C51   NG2R51     9     0.000000     0.000000     3
  CG3C52   CG3C51   CG3C51   NG2R53     9     0.000000     8.911920     3
  CG3C52   CG3C51   CG3C51    NG311     9     0.000000     0.000000     3
  CG3C52   CG3C51   CG3C51   NG3C51     9     0.000000     2.886960     3
  CG3C52   CG3C51   CG3C51    OG303     9   180.000000     3.347200     3
  CG3C52   CG3C51   CG3C51    OG303     9     0.000000     0.836800     4
  CG3C52   CG3C51   CG3C51    OG311     9     0.000000     0.836800     3
  CG3C52   CG3C51   CG3C51   OG3C51     9     0.000000     0.000000     3
  CG3C52   CG3C51   CG3C51    SG311     9     0.000000     0.376560     3
  CG3C52   CG3C51   CG3C51     FGA1     9     0.000000     0.836800     3
  CG3C52   CG3C51   CG3C51     HGA1     9     0.000000     0.794960     3
  CG3C52   CG3C51   CG3C51     HGA6     9     0.000000     0.794960     3
  CG3C52   CG3C51   CG3C52    CG2D1     9     0.000000     0.627600     2
  CG3C52   CG3C51   CG3C52    CG2D1     9     0.000000     0.000000     3
  CG3C52   CG3C51   CG3C52   CG2R51     9   180.000000     1.422560     3
  CG3C52   CG3C51   CG3C52   CG2R53     9   180.000000     1.422560     3
  CG3C52   CG3C51   CG3C52   CG2RC0     9   180.000000    15.480800     3
  CG3C52   CG3C51   CG3C52   CG2RC0     9     0.000000     9.414000     4
  CG3C52   CG3C51   CG3C52   CG2RC0     9   180.000000     0.962320     6
  CG3C52   CG3C51   CG3C52   CG3C50     9   180.000000     1.715440     3
  CG3C52   CG3C51   CG3C52   CG3C51     9   180.000000     1.715440     3
  CG3C52   CG3C51   CG3C52   CG3C52     9   180.000000     1.715440     3
  CG3C52   CG3C51   CG3C52   CG3RC1     9     0.000000     0.627600     3
  CG3C52   CG3C51   CG3C52   NG2R53     9     0.000000     8.911920     3
  CG3C52   CG3C51   CG3C52    NG2S0     9     0.000000     0.585760     3
  CG3C52   CG3C51   CG3C52   NG3C51     9     0.000000     2.886960     3
  CG3C52   CG3C51   CG3C52   OG3C51     9     0.000000     0.000000     3
  CG3C52   CG3C51   CG3C52    SG311     9     0.000000     0.376560     3
  CG3C52   CG3C51   CG3C52     HGA2     9     0.000000     0.794960     3
  CG3C52   CG3C51   CG3C53    CG321     9     0.000000     0.794960     3
  CG3C52   CG3C51   CG3C53    CG331     9     0.000000     0.794960     3
  CG3C52   CG3C51   CG3C53   CG3C52     9   180.000000     1.715440     3
  CG3C52   CG3C51   CG3C53   NG2R52     9   180.000000     0.502080     3
  CG3C52   CG3C51   CG3C53   NG2R52     9   180.000000     0.251040     4
  CG3C52   CG3C51   CG3C53    NG3P1     9     0.000000     0.585760     3
  CG3C52   CG3C51   CG3C53    NG3P2     9     0.000000     0.585760     3
  CG3C52   CG3C51   CG3C53    NG3P3     9     0.000000     0.585760     3
  CG3C52   CG3C51   CG3C53     HGA1     9     0.000000     0.836800     3
  CG3C52   CG3C51   CG3C54    NG2P1     9     0.000000     8.284320     3
  CG3C52   CG3C51   CG3C54    NG2P1     9     0.000000     5.020800     4
  CG3C52   CG3C51   CG3C54    NG3P2     9     0.000000     0.585760     3
  CG3C52   CG3C51   CG3C54     HGA2     9     0.000000     0.794960     3
  CG3C52   CG3C51   CG3RC1   CG2R57     9     0.000000     0.376560     2
  CG3C52   CG3C51   CG3RC1   CG2R57     9   180.000000     1.046000     3
  CG3C52   CG3C51   CG3RC1    CG311     9     0.000000     0.209200     3
  CG3C52   CG3C51   CG3RC1    CG321     9   180.000000     9.204800     2
  CG3C52   CG3C51   CG3RC1    CG321     9     0.000000    16.736000     3
  CG3C52   CG3C51   CG3RC1    CG321     9   180.000000     2.301200     6
  CG3C52   CG3C51   CG3RC1    CG331     9     0.000000     0.209200     3
  CG3C52   CG3C51   CG3RC1   CG3C31     9   180.000000     9.204800     2
  CG3C52   CG3C51   CG3RC1   CG3C31     9     0.000000    16.736000     3
  CG3C52   CG3C51   CG3RC1   CG3C31     9   180.000000     2.301200     6
  CG3C52   CG3C51   CG3RC1   CG3C51     9     0.000000     0.000000     3
  CG3C52   CG3C51   CG3RC1   CG3C52     9     0.000000     0.000000     3
  CG3C52   CG3C51   CG3RC1   CG3RC1     9     0.000000     0.627600     3
  CG3C52   CG3C51   CG3RC1   OG3C31     9     0.000000     2.510400     3
  CG3C52   CG3C51   CG3RC1   OG3C31     9     0.000000     2.092000     4
  CG3C52   CG3C51   CG3RC1   OG3C51     9   180.000000     0.753120     2
  CG3C52   CG3C51   CG3RC1   OG3C51     9     0.000000    15.438960     3
  CG3C52   CG3C51   CG3RC1     HGA1     9     0.000000     0.627600     3
  CG3C52   CG3C51   NG2R50   CG2R53     9   180.000000     7.949600     3
  CG3C52   CG3C51   NG2R51   CG2R51     9     0.000000     0.836800     4
  CG3C52   CG3C51   NG2R51   CG2R53     9   180.000000     0.000000     3
  CG3C52   CG3C51   NG2R51   CG2RC0     9     0.000000     0.000000     3
  CG3C52   CG3C51   NG2R51   NG2R50     9   180.000000     1.046000     4
  CG3C52   CG3C51   NG2R51   NG2R50     9     0.000000     0.711280     6
  CG3C52   CG3C51   NG2R53   CG2R53     9   180.000000     2.133840     2
  CG3C52   CG3C51   NG2R53   CG2R53     9   180.000000     6.903600     3
  CG3C52   CG3C51   NG2R53   CG3C52     9     0.000000     3.138000     3
  CG3C52   CG3C51   NG2R53     HGP1     9   180.000000     4.393200     2
  CG3C52   CG3C51   NG2R53     HGP1     9     0.000000     2.008320     3
  CG3C52   CG3C51   NG2R61   CG2R62     9   180.000000     0.000000     3
  CG3C52   CG3C51   NG2R61   CG2R63     9     0.000000     4.184000     3
  CG3C52   CG3C51    NG2S0    CG2O1     9     0.000000     3.347200     3
  CG3C52   CG3C51    NG2S0   CG2RC0     9   180.000000     1.380720     2
  CG3C52   CG3C51    NG2S0   CG2RC0     9   180.000000     4.058480     3
  CG3C52   CG3C51    NG2S0    CG321     9     0.000000    11.213120     3
  CG3C52   CG3C51    NG2S0   CG3C52     9     0.000000     0.418400     3
  CG3C52   CG3C51    NG2S0   CG3RC1     9     0.000000     0.418400     3
  CG3C52   CG3C51    NG2S1    CG2O1     9     0.000000     6.837493     3
  CG3C52   CG3C51    NG2S1     HGP1     9     0.000000     2.577344     1
  CG3C52   CG3C51    NG2S3      PG1     9   180.000000     6.276000     1
  CG3C52   CG3C51    NG2S3      PG1     9   180.000000     2.719600     2
  CG3C52   CG3C51    NG2S3      PG1     9     0.000000     4.184000     3
  CG3C52   CG3C51    NG2S3     HGP1     9     0.000000     1.255200     1
  CG3C52   CG3C51    NG301    CG321     9   180.000000     8.368000     1
  CG3C52   CG3C51    NG301    CG321     9     0.000000     2.928800     3
  CG3C52   CG3C51    NG311    CG321     9   180.000000     8.368000     1
  CG3C52   CG3C51    NG311    CG321     9     0.000000     2.928800     3
  CG3C52   CG3C51    NG311    CG331     9   180.000000     8.368000     1
  CG3C52   CG3C51    NG311    CG331     9     0.000000     2.928800     3
  CG3C52   CG3C51    NG311   HGPAM1     9     0.000000     0.836800     2
  CG3C52   CG3C51    NG321   HGPAM2     9   180.000000     1.255200     3
  CG3C52   CG3C51   NG3C51   CG2R62     9     0.000000     0.585760     3
  CG3C52   CG3C51   NG3C51   CG2R62     9   180.000000     1.004160     6
  CG3C52   CG3C51   NG3C51   CG2R64     9     0.000000     0.209200     2
  CG3C52   CG3C51   NG3C51   CG2R64     9     0.000000     0.041840     3
  CG3C52   CG3C51   NG3C51   CG2RC0     9   180.000000     6.066800     3
  CG3C52   CG3C51   NG3C51    CG321     9     0.000000     5.833333     3
  CG3C52   CG3C51   NG3C51    CG331     9     0.000000     5.833333     3
  CG3C52   CG3C51   NG3C51   CG3C51     9   180.000000     1.506240     2
  CG3C52   CG3C51   NG3C51   CG3C51     9     0.000000     6.778080     3
  CG3C52   CG3C51   NG3C51   CG3C52     9     0.000000     0.753120     3
  CG3C52   CG3C51   NG3C51   OG3C51     9     0.000000     4.613278     3
  CG3C52   CG3C51   NG3C51    SG3O2     9     0.000000     1.631760     3
  CG3C52   CG3C51   NG3C51     HGP1     9     0.000000     2.301200     1
  CG3C52   CG3C51   NG3C51     HGP1     9     0.000000     3.556400     3
  CG3C52   CG3C51    NG3N1    NG3N1     9   180.000000     5.606560     1
  CG3C52   CG3C51    NG3N1    NG3N1     9   180.000000     4.267680     3
  CG3C52   CG3C51    NG3N1     HGP1     9     0.000000     0.836800     2
  CG3C52   CG3C51    NG3N1     HGP1     9     0.000000     5.481040     3
  CG3C52   CG3C51    OG301    CG311     9   180.000000     0.836800     1
  CG3C52   CG3C51    OG301    CG311     9     0.000000     1.255200     3
  CG3C52   CG3C51    OG301    CG331     9   180.000000     0.418400     1
  CG3C52   CG3C51    OG301    CG331     9   180.000000     6.903600     2
  CG3C52   CG3C51    OG301    CG331     9     0.000000     1.882800     3
  CG3C52   CG3C51    OG301   CG3C51     9   180.000000     1.255200     1
  CG3C52   CG3C51    OG301   CG3C51     9   180.000000     3.347200     2
  CG3C52   CG3C51    OG303      PG1     9   180.000000    10.460000     1
  CG3C52   CG3C51    OG303      PG2     9   180.000000    10.460000     1
  CG3C52   CG3C51    OG311     HGP1     9     0.000000     1.213360     1
  CG3C52   CG3C51    OG311     HGP1     9     0.000000     2.594080     2
  CG3C52   CG3C51    OG311     HGP1     9     0.000000     0.209200     3
  CG3C52   CG3C51   OG3C51   CG2R51     9     0.000000     3.054320     3
  CG3C52   CG3C51   OG3C51   CG2R53     9     0.000000     9.288480     2
  CG3C52   CG3C51   OG3C51   CG2RC0     9     0.000000     3.054320     3
  CG3C52   CG3C51   OG3C51   CG3C50     9     0.000000     2.092000     3
  CG3C52   CG3C51   OG3C51   CG3C51     9     0.000000     2.092000     3
  CG3C52   CG3C51   OG3C51   CG3C52     9     0.000000     2.092000     3
  CG3C52   CG3C51   OG3C51   CG3RC1     9     0.000000     2.092000     3
  CG3C52   CG3C51   OG3C51   NG3C51     9     0.000000     0.149787     3
  CG3C52   CG3C51    SG311   CG2RC0     9   180.000000     0.920480     1
  CG3C52   CG3C51    SG311   CG2RC0     9   180.000000    22.300720     2
  CG3C52   CG3C51    SG311   CG2RC0     9   180.000000     2.008320     3
  CG3C52   CG3C51    SG311    CG321     9     0.000000     0.725924     1
  CG3C52   CG3C51    SG311    CG321     9     0.000000     1.269844     3
  CG3C52   CG3C51    SG311   CG3C52     9   180.000000     0.711280     1
  CG3C52   CG3C51    SG311   CG3C52     9     0.000000     1.548080     3
  CG3C52   CG3C51    SG3O1    OG2P1     9     0.000000     3.891120     3
  CG3C52   CG3C51    SG3O2   CG3C52     9     0.000000     0.000000     1
  CG3C52   CG3C51    SG3O2   CG3C52     9   180.000000     6.317840     2
  CG3C52   CG3C51    SG3O2   CG3C52     9   180.000000     2.594080     3
  CG3C52   CG3C51    SG3O2    OG2P1     9   180.000000     0.000000     2
  CG3C52   CG3C51    SG3O2    OG2P1     9     0.000000     3.932960     3
  CG3C52   CG3C51    CG2O1      NH1     9     0.000000     1.673600     1
  CG3C52   CG3C51    CG2O1      NH1     9     0.000000     2.510400     2
  CG3C52   CG3C51    CG2O1        N     9     0.000000     0.000000     1
  CG3C52   CG3C51      CT1        C     9   180.000000     1.935518     4
  CG3C52   CG3C51      CT1      NH1     9   180.000000     2.572742     4
  CG3C52   CG3C52   CG3C52   CG3C52     9   180.000000     1.715440     3
  CG3C52   CG3C52   CG3C52   CG3C53     9   180.000000     1.171520     6
  CG3C52   CG3C52   CG3C52   CG3RC1     9     0.000000     0.627600     3
  CG3C52   CG3C52   CG3C52   NG2R50     9   180.000000    12.300960     2
  CG3C52   CG3C52   CG3C52   NG2R50     9   180.000000     8.870080     3
  CG3C52   CG3C52   CG3C52   NG2R51     9     0.000000     0.711280     2
  CG3C52   CG3C52   CG3C52   NG2R51     9     0.000000    15.857360     3
  CG3C52   CG3C52   CG3C52   NG2R53     9     0.000000     8.911920     3
  CG3C52   CG3C52   CG3C52   NG2R57     9     0.000000     0.000000     3
  CG3C52   CG3C52   CG3C52   NG2R61     9     0.000000     0.585760     3
  CG3C52   CG3C52   CG3C52    NG2S0     9     0.000000     0.585760     3
  CG3C52   CG3C52   CG3C52   NG3C51     9     0.000000     2.886960     3
  CG3C52   CG3C52   CG3C52   OG3C51     9     0.000000     0.000000     3
  CG3C52   CG3C52   CG3C52    SG311     9   180.000000     1.255200     3
  CG3C52   CG3C52   CG3C52    SG3O2     9   180.000000     0.209200     2
  CG3C52   CG3C52   CG3C52    SG3O2     9   180.000000     0.878640     3
  CG3C52   CG3C52   CG3C52    SG3O2     9     0.000000     1.464400     4
  CG3C52   CG3C52   CG3C52     HGA2     9     0.000000     0.794960     3
  CG3C52   CG3C52   CG3C53    CG2O1     9     0.000000     0.585760     3
  CG3C52   CG3C52   CG3C53    CG2O3     9     0.000000     0.585760     3
  CG3C52   CG3C52   CG3C53   CG2R51     9   180.000000     1.422560     3
  CG3C52   CG3C52   CG3C53   CG2R53     9   180.000000     1.422560     3
  CG3C52   CG3C52   CG3C53   CG2R57     9   180.000000     1.422560     3
  CG3C52   CG3C52   CG3C53   CG2R61     9     0.000000     4.978960     2
  CG3C52   CG3C52   CG3C53   CG2R61     9     0.000000     1.757280     3
  CG3C52   CG3C52   CG3C53   CG2R61     9   180.000000     1.004160     4
  CG3C52   CG3C52   CG3C53   CG2R64     9   180.000000     0.125520     2
  CG3C52   CG3C52   CG3C53   CG2R64     9     0.000000     6.610720     3
  CG3C52   CG3C52   CG3C53   CG2RC0     9   180.000000     1.422560     3
  CG3C52   CG3C52   CG3C53    CG301     9     0.000000     0.794960     3
  CG3C52   CG3C52   CG3C53    CG311     9     0.000000     0.794960     3
  CG3C52   CG3C52   CG3C53    CG331     9     0.000000     0.794960     3
  CG3C52   CG3C52   CG3C53   CG3C50     9     0.000000     0.627600     3
  CG3C52   CG3C52   CG3C53   CG3C51     9   180.000000     1.715440     3
  CG3C52   CG3C52   CG3C53   CG3C52     9     0.000000     3.598240     3
  CG3C52   CG3C52   CG3C53   CG3C52     9     0.000000     0.543920     6
  CG3C52   CG3C52   CG3C53   CG3RC1     9     0.000000     0.627600     3
  CG3C52   CG3C52   CG3C53    NG3P1     9   180.000000     0.585760     3
  CG3C52   CG3C52   CG3C53    NG3P1     9   180.000000     2.050160     6
  CG3C52   CG3C52   CG3C53    NG3P2     9     0.000000     0.585760     3
  CG3C52   CG3C52   CG3C53    NG3P3     9     0.000000     0.585760     3
  CG3C52   CG3C52   CG3C53     HGA1     9     0.000000     0.585760     3
  CG3C52   CG3C52   CG3C54   NG2R52     9     0.000000     0.000000     2
  CG3C52   CG3C52   CG3C54   NG2R52     9     0.000000     8.786400     3
  CG3C52   CG3C52   CG3C54   NG2RC0     9     0.000000     0.000000     3
  CG3C52   CG3C52   CG3C54    NG3P0     9     0.000000     0.585760     3
  CG3C52   CG3C52   CG3C54    NG3P2     9     0.000000     0.585760     3
  CG3C52   CG3C52   CG3C54     HGA2     9     0.000000     0.585760     3
  CG3C52   CG3C52   CG3C54     HGP5     9     0.000000     4.937120     3
  CG3C52   CG3C52   CG3C54     HGP5     9   180.000000     0.920480     6
  CG3C52   CG3C52   CG3RC1    CG2D1     9   180.000000     7.824080     2
  CG3C52   CG3C52   CG3RC1    CG2D1     9     0.000000     2.635920     3
  CG3C52   CG3C52   CG3RC1    CG2O1     9     0.000000     3.221680     2
  CG3C52   CG3C52   CG3RC1    CG2O1     9   180.000000     4.476880     3
  CG3C52   CG3C52   CG3RC1    CG2O2     9   180.000000     0.376560     2
  CG3C52   CG3C52   CG3RC1    CG2O2     9     0.000000     8.116960     3
  CG3C52   CG3C52   CG3RC1    CG2O5     9     0.000000     6.485200     2
  CG3C52   CG3C52   CG3RC1    CG2O5     9     0.000000     4.058480     3
  CG3C52   CG3C52   CG3RC1    CG2O5     9   180.000000     2.635920     4
  CG3C52   CG3C52   CG3RC1   CG2R51     9     0.000000     0.000000     2
  CG3C52   CG3C52   CG3RC1   CG2R51     9     0.000000     0.167360     3
  CG3C52   CG3C52   CG3RC1   CG2R57     9     0.000000     0.376560     2
  CG3C52   CG3C52   CG3RC1   CG2R57     9     0.000000     0.836800     3
  CG3C52   CG3C52   CG3RC1   CG2RC0     9   180.000000     3.305360     2
  CG3C52   CG3C52   CG3RC1   CG2RC0     9     0.000000    18.116720     3
  CG3C52   CG3C52   CG3RC1    CG301     9     0.000000     0.418400     3
  CG3C52   CG3C52   CG3RC1    CG301     9     0.000000     2.092000     4
  CG3C52   CG3C52   CG3RC1    CG311     9     0.000000     0.418400     3
  CG3C52   CG3C52   CG3RC1    CG311     9     0.000000     2.092000     4
  CG3C52   CG3C52   CG3RC1    CG321     9     0.000000     0.836800     3
  CG3C52   CG3C52   CG3RC1    CG324     9   180.000000     2.845120     2
  CG3C52   CG3C52   CG3RC1    CG324     9     0.000000     0.292880     3
  CG3C52   CG3C52   CG3RC1    CG331     9     0.000000     0.836800     3
  CG3C52   CG3C52   CG3RC1   CG3C31     9   180.000000     9.204800     2
  CG3C52   CG3C52   CG3RC1   CG3C31     9     0.000000    16.736000     3
  CG3C52   CG3C52   CG3RC1   CG3C31     9   180.000000     2.301200     6
  CG3C52   CG3C52   CG3RC1   CG3C50     9     0.000000     0.000000     3
  CG3C52   CG3C52   CG3RC1   CG3C51     9     0.000000     0.000000     3
  CG3C52   CG3C52   CG3RC1   CG3C52     9     0.000000     0.000000     3
  CG3C52   CG3C52   CG3RC1   CG3C53     9   180.000000     1.004160     3
  CG3C52   CG3C52   CG3RC1   CG3C53     9   180.000000     1.046000     4
  CG3C52   CG3C52   CG3RC1   CG3RC1     9     0.000000     0.627600     3
  CG3C52   CG3C52   CG3RC1   NG2R50     9   180.000000    19.539280     2
  CG3C52   CG3C52   CG3RC1   NG2R50     9   180.000000     0.251040     3
  CG3C52   CG3C52   CG3RC1   NG2R51     9     0.000000     0.627600     3
  CG3C52   CG3C52   CG3RC1   NG2R53     9     0.000000     0.627600     3
  CG3C52   CG3C52   CG3RC1   NG2R61     9     0.000000     0.627600     3
  CG3C52   CG3C52   CG3RC1    NG2S0     9     0.000000     0.627600     3
  CG3C52   CG3C52   CG3RC1    NG2S1     9     0.000000     0.627600     3
  CG3C52   CG3C52   CG3RC1    NG301     9   180.000000     0.585760     2
  CG3C52   CG3C52   CG3RC1    NG301     9     0.000000     1.548080     3
  CG3C52   CG3C52   CG3RC1    NG311     9     0.000000     1.087840     3
  CG3C52   CG3C52   CG3RC1    NG311     9     0.000000     0.711280     6
  CG3C52   CG3C52   CG3RC1   NG3C51     9   180.000000    10.418160     2
  CG3C52   CG3C52   CG3RC1   NG3C51     9     0.000000     1.046000     3
  CG3C52   CG3C52   CG3RC1    NG3P0     9     0.000000     5.271840     3
  CG3C52   CG3C52   CG3RC1    NG3P0     9     0.000000     2.050160     6
  CG3C52   CG3C52   CG3RC1    NG3P1     9     0.000000     0.000000     2
  CG3C52   CG3C52   CG3RC1    NG3P1     9     0.000000     7.656720     3
  CG3C52   CG3C52   CG3RC1    NG3P2     9     0.000000     7.489360     3
  CG3C52   CG3C52   CG3RC1    NG3P2     9   180.000000     2.426720     4
  CG3C52   CG3C52   CG3RC1    OG311     9     0.000000     0.083680     2
  CG3C52   CG3C52   CG3RC1    OG311     9     0.000000     0.711280     3
  CG3C52   CG3C52   CG3RC1    OG311     9     0.000000     0.083680     5
  CG3C52   CG3C52   CG3RC1    OG311     9   180.000000     0.962320     6
  CG3C52   CG3C52   CG3RC1   OG3C31     9     0.000000     2.510400     3
  CG3C52   CG3C52   CG3RC1   OG3C31     9     0.000000     2.092000     4
  CG3C52   CG3C52   CG3RC1   OG3C51     9     0.000000     1.840960     2
  CG3C52   CG3C52   CG3RC1   OG3C51     9     0.000000     6.652560     3
  CG3C52   CG3C52   CG3RC1   OG3C61     9     0.000000     0.083680     2
  CG3C52   CG3C52   CG3RC1   OG3C61     9     0.000000     0.711280     3
  CG3C52   CG3C52   CG3RC1   OG3C61     9     0.000000     0.083680     5
  CG3C52   CG3C52   CG3RC1   OG3C61     9   180.000000     0.962320     6
  CG3C52   CG3C52   CG3RC1    SG311     9     0.000000     8.660880     2
  CG3C52   CG3C52   CG3RC1    SG311     9     0.000000     0.753120     3
  CG3C52   CG3C52   CG3RC1    SG3O2     9   180.000000     6.903600     3
  CG3C52   CG3C52   CG3RC1    SG3O2     9   180.000000     2.008320     4
  CG3C52   CG3C52   CG3RC1    SG3O3     9   180.000000     4.393200     2
  CG3C52   CG3C52   CG3RC1    SG3O3     9   180.000000     5.857600     3
  CG3C52   CG3C52   CG3RC1     HGA1     9     0.000000     0.627600     3
  CG3C52   CG3C52   CG3RC1     HGP5     9   180.000000     2.133840     3
  CG3C52   CG3C52   CG3RC1     HGP5     9     0.000000     0.627600     6
  CG3C52   CG3C52   NG2R50   CG2R52     9   180.000000     7.949600     3
  CG3C52   CG3C52   NG2R50   CG2R53     9   180.000000     7.949600     3
  CG3C52   CG3C52   NG2R50   CG2RC0     9   180.000000     7.949600     3
  CG3C52   CG3C52   NG2R50   NG2R50     9     0.000000     1.213360     2
  CG3C52   CG3C52   NG2R50   NG2R50     9   180.000000     6.568880     3
  CG3C52   CG3C52   NG2R51   CG2R51     9     0.000000     1.338880     2
  CG3C52   CG3C52   NG2R51   CG2R51     9   180.000000     0.878640     4
  CG3C52   CG3C52   NG2R51   CG2R53     9   180.000000     9.162960     2
  CG3C52   CG3C52   NG2R51   CG2R53     9     0.000000     7.196480     3
  CG3C52   CG3C52   NG2R51   CG2RC0     9   180.000000     3.807440     2
  CG3C52   CG3C52   NG2R51   CG2RC0     9   180.000000     6.317840     3
  CG3C52   CG3C52   NG2R51   NG2R50     9     0.000000     0.000000     2
  CG3C52   CG3C52   NG2R51   NG2R50     9   180.000000     1.297040     4
  CG3C52   CG3C52   NG2R53   CG2R53     9   180.000000     9.665040     3
  CG3C52   CG3C52   NG2R53    CG311     9     0.000000     0.292880     2
  CG3C52   CG3C52   NG2R53    CG311     9     0.000000     3.556400     3
  CG3C52   CG3C52   NG2R53   CG3C51     9     0.000000     1.129680     2
  CG3C52   CG3C52   NG2R53   CG3C51     9     0.000000     0.962320     3
  CG3C52   CG3C52   NG2R53   NG3C51     9   180.000000    13.137760     2
  CG3C52   CG3C52   NG2R53   NG3C51     9     0.000000     1.464400     3
  CG3C52   CG3C52   NG2R53     HGP1     9     0.000000     3.179840     3
  CG3C52   CG3C52   NG2R57   CG2R53     9     0.000000     0.585760     2
  CG3C52   CG3C52   NG2R57   CG2R53     9     0.000000    15.690000     3
  CG3C52   CG3C52   NG2R57   CG2R57     9     0.000000     0.000000     2
  CG3C52   CG3C52   NG2R57   CG2R57     9     0.000000     1.046000     4
  CG3C52   CG3C52   NG2R57   CG3C52     9     0.000000     0.418400     2
  CG3C52   CG3C52   NG2R57   CG3C52     9     0.000000    12.970400     4
  CG3C52   CG3C52   NG2R61   CG2R63     9     0.000000     4.184000     3
  CG3C52   CG3C52   NG2R61   CG2R64     9     0.000000     4.184000     3
  CG3C52   CG3C52   NG2R61   CG2RC0     9   180.000000     0.000000     3
  CG3C52   CG3C52    NG2S0    CG2O1     9   180.000000     0.000000     3
  CG3C52   CG3C52    NG2S0   CG2RC0     9   180.000000     6.234160     3
  CG3C52   CG3C52    NG2S0   CG2RC0     9   180.000000     2.008320     4
  CG3C52   CG3C52    NG2S0   CG3C50     9     0.000000     0.418400     3
  CG3C52   CG3C52    NG2S0   CG3C51     9     0.000000     0.418400     3
  CG3C52   CG3C52    NG2S0   CG3C52     9     0.000000     0.418400     3
  CG3C52   CG3C52    NG2S0   CG3RC1     9     0.000000     0.418400     3
  CG3C52   CG3C52   NG3C51   CG251O     9     0.000000     0.000000     2
  CG3C52   CG3C52   NG3C51   CG251O     9   180.000000     0.209200     3
  CG3C52   CG3C52   NG3C51   CG251O     9     0.000000     0.167360     6
  CG3C52   CG3C52   NG3C51   CG252O     9     0.000000     0.000000     2
  CG3C52   CG3C52   NG3C51   CG252O     9   180.000000     0.209200     3
  CG3C52   CG3C52   NG3C51   CG252O     9     0.000000     0.167360     6
  CG3C52   CG3C52   NG3C51   CG2D1O     9     0.000000     0.878640     2
  CG3C52   CG3C52   NG3C51   CG2D1O     9   180.000000     0.083680     3
  CG3C52   CG3C52   NG3C51   CG2D2O     9     0.000000     0.878640     2
  CG3C52   CG3C52   NG3C51   CG2D2O     9   180.000000     0.083680     3
  CG3C52   CG3C52   NG3C51   CG2R51     9   180.000000     0.209200     3
  CG3C52   CG3C52   NG3C51   CG2R53     9   180.000000     7.949600     3
  CG3C52   CG3C52   NG3C51   CG2R57     9   180.000000     0.209200     3
  CG3C52   CG3C52   NG3C51   CG2R61     9     0.000000     0.041840     2
  CG3C52   CG3C52   NG3C51   CG2R61     9     0.000000     2.719600     3
  CG3C52   CG3C52   NG3C51   CG2R62     9   180.000000     3.096160     3
  CG3C52   CG3C52   NG3C51   CG2R62     9     0.000000     2.426720     6
  CG3C52   CG3C52   NG3C51   CG2R64     9     0.000000     0.376560     3
  CG3C52   CG3C52   NG3C51   CG2R64     9   180.000000     1.129680     4
  CG3C52   CG3C52   NG3C51   CG2RC0     9   180.000000     6.066800     3
  CG3C52   CG3C52   NG3C51    CG311     9     0.000000     4.267680     3
  CG3C52   CG3C52   NG3C51    CG321     9     0.000000     4.265170     3
  CG3C52   CG3C52   NG3C51    CG331     9     0.000000     4.265170     3
  CG3C52   CG3C52   NG3C51   CG3C41     9     0.000000     4.267680     3
  CG3C52   CG3C52   NG3C51   CG3C50     9     0.000000     0.753120     3
  CG3C52   CG3C52   NG3C51   CG3C51     9     0.000000     0.753120     3
  CG3C52   CG3C52   NG3C51   CG3C52     9     0.000000     0.753120     3
  CG3C52   CG3C52   NG3C51   NG2R50     9   180.000000    11.715200     3
  CG3C52   CG3C52   NG3C51   NG2R53     9   180.000000     8.326160     3
  CG3C52   CG3C52   NG3C51   NG2R53     9   180.000000     0.878640     4
  CG3C52   CG3C52   NG3C51    NG3P2     9     0.000000     3.765600     3
  CG3C52   CG3C52   NG3C51   OG3C51     9   180.000000     8.326160     3
  CG3C52   CG3C52   NG3C51   OG3C51     9   180.000000     7.949600     4
  CG3C52   CG3C52   NG3C51    SG3O2     9     0.000000     4.853440     3
  CG3C52   CG3C52   NG3C51    SG3O2     9   180.000000     0.836800     4
  CG3C52   CG3C52   NG3C51    SG3O2     9   180.000000     3.012480     6
  CG3C52   CG3C52   NG3C51     HGP1     9     0.000000     2.301200     1
  CG3C52   CG3C52   NG3C51     HGP1     9     0.000000     3.556400     3
  CG3C52   CG3C52   OG3C51   CG2R51     9     0.000000     3.054320     3
  CG3C52   CG3C52   OG3C51   CG2R53     9     0.000000     9.288480     2
  CG3C52   CG3C52   OG3C51   CG3C41     9     0.000000     0.041840     2
  CG3C52   CG3C52   OG3C51   CG3C41     9     0.000000     0.711280     3
  CG3C52   CG3C52   OG3C51   CG3C50     9     0.000000     2.092000     3
  CG3C52   CG3C52   OG3C51   CG3C51     9     0.000000     2.092000     3
  CG3C52   CG3C52   OG3C51   CG3C52     9     0.000000     2.092000     3
  CG3C52   CG3C52   OG3C51   CG3RC1     9     0.000000     2.092000     3
  CG3C52   CG3C52   OG3C51   NG3C51     9   180.000000     0.000000     3
  CG3C52   CG3C52   OG3C51   NG3C51     9     0.000000     4.435040     4
  CG3C52   CG3C52    SG311   CG2RC0     9   180.000000     0.585760     1
  CG3C52   CG3C52    SG311   CG2RC0     9   180.000000    14.141920     2
  CG3C52   CG3C52    SG311   CG2RC0     9   180.000000     1.046000     3
  CG3C52   CG3C52    SG311   CG3C50     9   180.000000     0.711280     1
  CG3C52   CG3C52    SG311   CG3C50     9     0.000000     1.548080     3
  CG3C52   CG3C52    SG311   CG3C51     9   180.000000     0.711280     1
  CG3C52   CG3C52    SG311   CG3C51     9     0.000000     1.548080     3
  CG3C52   CG3C52    SG311   CG3C52     9   180.000000     0.711280     1
  CG3C52   CG3C52    SG311   CG3C52     9     0.000000     1.548080     3
  CG3C52   CG3C52    SG3O2   CG3C41     9   180.000000     0.167360     1
  CG3C52   CG3C52    SG3O2   CG3C41     9   180.000000     0.041840     2
  CG3C52   CG3C52    SG3O2   CG3C41     9     0.000000     3.430880     3
  CG3C52   CG3C52    SG3O2   CG3C50     9     0.000000     0.000000     1
  CG3C52   CG3C52    SG3O2   CG3C50     9   180.000000    11.003920     2
  CG3C52   CG3C52    SG3O2   CG3C50     9     0.000000     0.000000     3
  CG3C52   CG3C52    SG3O2   CG3C51     9     0.000000     0.000000     1
  CG3C52   CG3C52    SG3O2   CG3C51     9   180.000000     3.514560     2
  CG3C52   CG3C52    SG3O2   CG3C51     9     0.000000     0.920480     3
  CG3C52   CG3C52    SG3O2   CG3C52     9   180.000000     0.000000     1
  CG3C52   CG3C52    SG3O2   CG3C52     9   180.000000     0.000000     2
  CG3C52   CG3C52    SG3O2   CG3C52     9   180.000000     0.000000     3
  CG3C52   CG3C52    SG3O2    OG2P1     9     0.000000     3.263520     2
  CG3C52   CG3C52    SG3O2    OG2P1     9     0.000000     4.937120     3
  CG3C52   CG3C53   CG3C54    NG3P2     9     0.000000     0.585760     3
  CG3C52   CG3C53   CG3C54     HGA2     9     0.000000     0.794960     3
  CG3C52   CG3C53   CG3RC1   CG3RC1     9     0.000000     0.627600     3
  CG3C52   CG3C53   CG3RC1   OG3C31     9     0.000000     2.510400     3
  CG3C52   CG3C53   CG3RC1   OG3C31     9     0.000000     2.092000     4
  CG3C52   CG3C53   CG3RC1   OG3C51     9   180.000000     2.384880     3
  CG3C52   CG3C53   CG3RC1   OG3C51     9   180.000000     2.050160     4
  CG3C52   CG3C53   CG3RC1    SG311     9     0.000000     0.753120     2
  CG3C52   CG3C53   CG3RC1    SG311     9     0.000000     0.543920     3
  CG3C52   CG3C53   CG3RC1     HGA1     9     0.000000     0.627600     3
  CG3C52   CG3C53   NG2R52   CG2R51     9     0.000000     2.175680     3
  CG3C52   CG3C53   NG2R52   CG2R51     9   180.000000     0.753120     6
  CG3C52   CG3C53   NG2R52   CG2R53     9     0.000000     3.598240     3
  CG3C52   CG3C53   NG2R52   CG2R53     9   180.000000     0.627600     6
  CG3C52   CG3C53    NG3P1    CG324     9     0.000000     2.133840     1
  CG3C52   CG3C53    NG3P1    CG324     9     0.000000     2.468560     3
  CG3C52   CG3C53    NG3P1    CG324     9   180.000000     0.167360     6
  CG3C52   CG3C53    NG3P1     HGP2     9   180.000000     1.380720     3
  CG3C52   CG3C53    NG3P2    CG324     9   180.000000     3.347200     1
  CG3C52   CG3C53    NG3P2    CG324     9     0.000000     0.334720     3
  CG3C52   CG3C53    NG3P2    CG334     9   180.000000     5.020800     1
  CG3C52   CG3C53    NG3P2    CG334     9     0.000000     1.046000     3
  CG3C52   CG3C53    NG3P2   CG3C53     9     0.000000     0.334720     3
  CG3C52   CG3C53    NG3P2   CG3C54     9     0.000000     0.334720     3
  CG3C52   CG3C53    NG3P2     HGP2     9     0.000000     0.334720     3
  CG3C52   CG3C53    NG3P3     HGP2     9     0.000000     0.334720     3
  CG3C52   CG3C54    NG2P1   CG2R64     9   180.000000     0.920480     3
  CG3C52   CG3C54    NG2P1   CG2R64     9     0.000000     7.112800     6
  CG3C52   CG3C54    NG2P1   CG3C54     9     0.000000     0.125520     2
  CG3C52   CG3C54    NG2P1   CG3C54     9     0.000000     3.974800     3
  CG3C52   CG3C54   NG2R52   CG2R51     9     0.000000     0.041840     2
  CG3C52   CG3C54   NG2R52   CG2R51     9     0.000000     0.753120     3
  CG3C52   CG3C54   NG2R52   CG2R53     9   180.000000     4.016640     2
  CG3C52   CG3C54   NG2R52   CG2R53     9   180.000000     0.878640     3
  CG3C52   CG3C54   NG2RC0   CG2R62     9   180.000000     4.644240     2
  CG3C52   CG3C54   NG2RC0   CG2R62     9   180.000000     6.568880     3
  CG3C52   CG3C54   NG2RC0   CG2RC0     9     0.000000     1.297040     2
  CG3C52   CG3C54   NG2RC0   CG2RC0     9     0.000000    20.166880     3
  CG3C52   CG3C54    NG3P0    CG334     9     0.000000     4.602400     1
  CG3C52   CG3C54    NG3P0    CG334     9   180.000000     3.681920     3
  CG3C52   CG3C54    NG3P0    CG334     9     0.000000     0.669440     6
  CG3C52   CG3C54    NG3P0   CG3C54     9   180.000000     0.125520     3
  CG3C52   CG3C54    NG3P0   CG3C54     9   180.000000     0.000000     6
  CG3C52   CG3C54    NG3P0   CG3RC1     9   180.000000     1.422560     3
  CG3C52   CG3C54    NG3P0   CG3RC1     9     0.000000     6.443360     4
  CG3C52   CG3C54    NG3P0   CG3RC1     9     0.000000     0.543920     6
  CG3C52   CG3C54    NG3P1   CG2R51     9     0.000000     0.000000     2
  CG3C52   CG3C54    NG3P1   CG2R51     9     0.000000     3.807440     3
  CG3C52   CG3C54    NG3P1    CG334     9   180.000000     4.895280     1
  CG3C52   CG3C54    NG3P1    CG334     9     0.000000     1.715440     2
  CG3C52   CG3C54    NG3P1    CG334     9     0.000000     1.631760     3
  CG3C52   CG3C54    NG3P1     HGP2     9   180.000000     0.711280     2
  CG3C52   CG3C54    NG3P1     HGP2     9     0.000000     3.096160     3
  CG3C52   CG3C54    NG3P2   CG2R51     9   180.000000     2.928800     3
  CG3C52   CG3C54    NG3P2   CG3C53     9     0.000000     0.334720     3
  CG3C52   CG3C54    NG3P2   CG3C54     9     0.000000     0.418400     3
  CG3C52   CG3C54    NG3P2   NG3C51     9     0.000000     0.167360     3
  CG3C52   CG3C54    NG3P2     HGP2     9     0.000000     0.334720     3
  CG3C52   CG3RC1   CG3RC1   CG3C52     9     0.000000     0.627600     3
  CG3C52   CG3RC1   CG3RC1   CG3C53     9     0.000000     2.510400     3
  CG3C52   CG3RC1   CG3RC1   CG3RC1     9   180.000000     0.251040     3
  CG3C52   CG3RC1   CG3RC1   NG2R50     9     0.000000     0.041840     2
  CG3C52   CG3RC1   CG3RC1   NG2R50     9   180.000000     1.422560     3
  CG3C52   CG3RC1   CG3RC1   NG2R51     9     0.000000     0.627600     3
  CG3C52   CG3RC1   CG3RC1   NG2R61     9     0.000000     0.627600     3
  CG3C52   CG3RC1   CG3RC1    NG301     9     0.000000     0.000000     2
  CG3C52   CG3RC1   CG3RC1    NG301     9   180.000000     4.225840     3
  CG3C52   CG3RC1   CG3RC1   NG3C51     9     0.000000     0.209200     2
  CG3C52   CG3RC1   CG3RC1   NG3C51     9   180.000000    12.175440     3
  CG3C52   CG3RC1   CG3RC1    NG3P3     9     0.000000     9.497680     3
  CG3C52   CG3RC1   CG3RC1    NG3P3     9     0.000000     4.435040     4
  CG3C52   CG3RC1   CG3RC1    OG311     9   180.000000     3.012480     4
  CG3C52   CG3RC1   CG3RC1    OG311     9   180.000000     3.514560     6
  CG3C52   CG3RC1   CG3RC1   OG3C31     9     0.000000     2.092000     4
  CG3C52   CG3RC1   CG3RC1   OG3C51     9     0.000000     5.020800     3
  CG3C52   CG3RC1   CG3RC1   OG3C61     9   180.000000     3.179840     2
  CG3C52   CG3RC1   CG3RC1   OG3C61     9   180.000000     2.050160     4
  CG3C52   CG3RC1   CG3RC1    SG311     9     0.000000     1.129680     2
  CG3C52   CG3RC1   CG3RC1    SG311     9   180.000000     1.255200     3
  CG3C52   CG3RC1   CG3RC1    SG3O2     9   180.000000     0.334720     3
  CG3C52   CG3RC1   CG3RC1     HGA1     9     0.000000     0.627600     3
  CG3C52   CG3RC1   NG2R50   NG2R50     9   180.000000     3.263520     2
  CG3C52   CG3RC1   NG2R50   NG2R50     9     0.000000     4.351360     3
  CG3C52   CG3RC1   NG2R51   CG2R53     9     0.000000     0.418400     3
  CG3C52   CG3RC1   NG2R51   CG2RC0     9     0.000000     1.255200     3
  CG3C52   CG3RC1   NG2R53   CG2R53     9   180.000000     6.736240     2
  CG3C52   CG3RC1   NG2R53   CG2R53     9     0.000000     3.765600     3
  CG3C52   CG3RC1   NG2R53    CG321     9     0.000000     0.000000     2
  CG3C52   CG3RC1   NG2R53    CG321     9     0.000000     3.807440     3
  CG3C52   CG3RC1   NG2R61   CG2R62     9   180.000000     0.000000     3
  CG3C52   CG3RC1   NG2R61   CG2R63     9     0.000000     1.255200     3
  CG3C52   CG3RC1    NG2S0    CG2O1     9   180.000000     0.543920     2
  CG3C52   CG3RC1    NG2S0    CG2O1     9   180.000000     0.962320     3
  CG3C52   CG3RC1    NG2S0    CG2O3     9   180.000000     0.000000     3
  CG3C52   CG3RC1    NG2S0   CG3C52     9     0.000000     1.589920     2
  CG3C52   CG3RC1    NG2S0   CG3C52     9     0.000000    11.087600     3
  CG3C52   CG3RC1    NG2S0   CG3RC1     9     0.000000     4.435040     3
  CG3C52   CG3RC1    NG2S0   CG3RC1     9   180.000000     3.514560     4
  CG3C52   CG3RC1    NG2S1    CG2O1     9   180.000000     0.878640     3
  CG3C52   CG3RC1    NG2S1     HGP1     9   180.000000     9.748720     1
  CG3C52   CG3RC1    NG2S1     HGP1     9   180.000000     0.125520     6
  CG3C52   CG3RC1    NG301    CG321     9   180.000000     0.502080     1
  CG3C52   CG3RC1    NG301    CG321     9     0.000000     0.000000     2
  CG3C52   CG3RC1    NG301    CG321     9     0.000000     0.125520     3
  CG3C52   CG3RC1    NG301    CG331     9   180.000000     1.129680     1
  CG3C52   CG3RC1    NG301    CG331     9   180.000000     1.757280     3
  CG3C52   CG3RC1    NG311    CG321     9   180.000000     1.631760     1
  CG3C52   CG3RC1    NG311    CG321     9   180.000000     3.556400     3
  CG3C52   CG3RC1    NG311    CG321     9     0.000000     1.506240     4
  CG3C52   CG3RC1    NG311   HGPAM1     9     0.000000     0.334720     2
  CG3C52   CG3RC1    NG311   HGPAM1     9     0.000000     1.004160     4
  CG3C52   CG3RC1   NG3C51    CG331     9   180.000000     8.995600     2
  CG3C52   CG3RC1   NG3C51    CG331     9     0.000000     5.146320     3
  CG3C52   CG3RC1   NG3C51   NG2R50     9     0.000000     0.083680     2
  CG3C52   CG3RC1   NG3C51   NG2R50     9   180.000000     4.184000     3
  CG3C52   CG3RC1    NG3P0    CG334     9   180.000000    28.074640     1
  CG3C52   CG3RC1    NG3P0    CG334     9   180.000000     0.627600     3
  CG3C52   CG3RC1    NG3P0   CG3C54     9     0.000000     4.769760     3
  CG3C52   CG3RC1    NG3P0   CG3C54     9   180.000000     0.334720     6
  CG3C52   CG3RC1    NG3P1    CG334     9     0.000000     0.167360     1
  CG3C52   CG3RC1    NG3P1    CG334     9   180.000000     0.083680     2
  CG3C52   CG3RC1    NG3P1    CG334     9   180.000000     1.422560     3
  CG3C52   CG3RC1    NG3P1   CG3RC1     9   180.000000     0.125520     1
  CG3C52   CG3RC1    NG3P1   CG3RC1     9   180.000000     4.978960     2
  CG3C52   CG3RC1    NG3P1   CG3RC1     9   180.000000     7.782240     3
  CG3C52   CG3RC1    NG3P1     HGP2     9   180.000000     6.987280     2
  CG3C52   CG3RC1    NG3P1     HGP2     9   180.000000     3.138000     3
  CG3C52   CG3RC1    NG3P2   CG3RC1     9     0.000000     0.334720     1
  CG3C52   CG3RC1    NG3P2   CG3RC1     9     0.000000     2.886960     3
  CG3C52   CG3RC1    NG3P2   CG3RC1     9   180.000000     1.213360     4
  CG3C52   CG3RC1    NG3P2     HGP2     9   180.000000     1.840960     3
  CG3C52   CG3RC1    NG3P3     HGP2     9     0.000000     0.920480     3
  CG3C52   CG3RC1    OG311     HGP1     9     0.000000     1.213360     1
  CG3C52   CG3RC1    OG311     HGP1     9     0.000000     2.594080     2
  CG3C52   CG3RC1    OG311     HGP1     9     0.000000     0.209200     3
  CG3C52   CG3RC1   OG3C31   CG3RC1     9   180.000000    10.250800     3
  CG3C52   CG3RC1   OG3C31   CG3RC1     9     0.000000     4.184000     4
  CG3C52   CG3RC1   OG3C51   CG3C50     9     0.000000     0.125520     2
  CG3C52   CG3RC1   OG3C51   CG3C50     9     0.000000     0.836800     3
  CG3C52   CG3RC1   OG3C51   CG3C52     9   180.000000     0.962320     3
  CG3C52   CG3RC1   OG3C51   CG3C52     9   180.000000     0.000000     6
  CG3C52   CG3RC1   OG3C61    CG301     9   180.000000     0.376560     1
  CG3C52   CG3RC1   OG3C61    CG301     9   180.000000     4.811600     2
  CG3C52   CG3RC1   OG3C61    CG301     9     0.000000     0.669440     3
  CG3C52   CG3RC1    SG311    CG321     9   180.000000     2.803280     1
  CG3C52   CG3RC1    SG311    CG321     9   180.000000     6.276000     3
  CG3C52   CG3RC1    SG311   CG3C52     9   180.000000     1.380720     1
  CG3C52   CG3RC1    SG311   CG3C52     9     0.000000     5.439200     3
  CG3C52   CG3RC1    SG311   CG3RC1     9     0.000000     0.711280     1
  CG3C52   CG3RC1    SG311   CG3RC1     9     0.000000     1.046000     2
  CG3C52   CG3RC1    SG311   CG3RC1     9     0.000000     1.380720     3
  CG3C52   CG3RC1    SG3O2    CG321     9   180.000000     0.125520     1
  CG3C52   CG3RC1    SG3O2    CG321     9     0.000000     0.125520     2
  CG3C52   CG3RC1    SG3O2    CG321     9   180.000000     1.087840     3
  CG3C52   CG3RC1    SG3O2   CG3RC1     9   180.000000     0.167360     1
  CG3C52   CG3RC1    SG3O2   CG3RC1     9   180.000000     3.640080     2
  CG3C52   CG3RC1    SG3O2   CG3RC1     9   180.000000     1.715440     3
  CG3C52   CG3RC1    SG3O2   CG3RC1     9     0.000000     8.200640     4
  CG3C52   CG3RC1    SG3O2    OG2P1     9   180.000000     2.217520     3
  CG3C52   CG3RC1    SG3O3   CG2R52     9     0.000000     1.087840     1
  CG3C52   CG3RC1    SG3O3   CG2R52     9     0.000000     0.000000     2
  CG3C52   CG3RC1    SG3O3   CG2R52     9   180.000000     0.836800     3
  CG3C52   CG3RC1    SG3O3   CG3C52     9     0.000000     0.083680     1
  CG3C52   CG3RC1    SG3O3   CG3C52     9     0.000000     0.125520     3
  CG3C52   CG3RC1    SG3O3   NG3C51     9   180.000000     0.376560     1
  CG3C52   CG3RC1    SG3O3   NG3C51     9     0.000000    24.894800     2
  CG3C52   CG3RC1    SG3O3   NG3C51     9     0.000000    16.861520     3
  CG3C52   CG3RC1    SG3O3    OG2P1     9   180.000000     2.050160     1
  CG3C52   CG3RC1    SG3O3    OG2P1     9     0.000000     5.355520     2
  CG3C52   CG3RC1    SG3O3    OG2P1     9     0.000000     1.338880     3
  CG3C52   NG2R53   NG3C51   CG3C51     9   180.000000    16.568640     2
  CG3C52   NG2R53   NG3C51   CG3C52     9     0.000000     2.970640     2
  CG3C52   NG2R53   NG3C51   CG3C52     9   180.000000     2.008320     4
  CG3C52   NG3C51    NG3P2   CG2R51     9     0.000000     1.631760     3
  CG3C52   NG3C51    NG3P2   CG2R51     9     0.000000     0.669440     6
  CG3C52   NG3C51    NG3P2   CG3C54     9     0.000000     4.267680     3
  CG3C52   NG3C51    NG3P2     HGP2     9     0.000000     0.334720     3
  CG3C52   NG3C51   OG3C51   CG2R51     9     0.000000     1.412518     3
  CG3C52   NG3C51   OG3C51   CG3C52     9     0.000000     0.041840     2
  CG3C52   NG3C51   OG3C51   CG3C52     9     0.000000     2.803280     3
  CG3C52   NG3C51    SG3O2    CG331     9   180.000000     9.246640     2
  CG3C52   NG3C51    SG3O2    CG331     9   180.000000     5.230000     3
  CG3C52   NG3C51    SG3O2    CG331     9   180.000000     3.138000     6
  CG3C52   NG3C51    SG3O2    NG321     9   180.000000     5.857600     1
  CG3C52   NG3C51    SG3O2    NG321     9     0.000000     9.623200     2
  CG3C52   NG3C51    SG3O2    NG321     9   180.000000     0.209200     3
  CG3C52   NG3C51    SG3O2    OG2P1     9   180.000000     0.418400     3
  CG3C52   NG3C51    SG3O2    OG2P1     9     0.000000     1.129680     6
  CG3C52   OG3C51    BG201   CG2RC0     9     0.000000     0.000000     3
  CG3C52   OG3C51    BG201    OG2D2     9   180.000000     9.969635     3
  CG3C52   OG3C51    BG201    OG311     9   180.000000     3.217078     3
  NG2R50   CG251O   CG251O   NG3C51     9   180.000000    20.836320     2
  NG2R50   CG251O   CG2DC1   CG2R51     9   180.000000    18.860635     2
  NG2R50   CG251O   CG2DC1   CG2R61     9   180.000000    19.490746     2
  NG2R50   CG251O   CG2DC1    CG331     9   180.000000    19.490746     2
  NG2R50   CG251O   CG2DC1     HGA4     9   180.000000    22.544229     2
  NG2R50   CG251O   CG2DC3     HGA5     9   180.000000    26.572166     2
  NG2R50   CG251O   CG2R53   NG2R51     9   180.000000     0.020920     2
  NG2R50   CG251O   CG2R53    OG2D1     9   180.000000     0.004602     2
  NG2R50   CG251O   CG2R53   OG3C51     9   180.000000    27.907280     2
  NG2R50   CG252O   CG252O   NG3C51     9   180.000000    20.836320     2
  NG2R50   CG252O   CG2DC2   CG2R51     9   180.000000    18.860635     2
  NG2R50   CG252O   CG2DC2   CG2R61     9   180.000000    19.490746     2
  NG2R50   CG252O   CG2DC2    CG331     9   180.000000    19.490746     2
  NG2R50   CG252O   CG2DC2     HGA4     9   180.000000    22.544229     2
  NG2R50   CG252O   CG2DC3     HGA5     9   180.000000    26.572166     2
  NG2R50   CG252O   CG2R53   NG2R51     9   180.000000     0.020920     2
  NG2R50   CG252O   CG2R53    OG2D1     9   180.000000     0.004602     2
  NG2R50   CG252O   CG2R53   OG3C51     9   180.000000    27.907280     2
  NG2R50   CG2R51   CG2R51   NG2R50     9   180.000000    58.576000     2
  NG2R50   CG2R51   CG2R51   NG2R51     9   180.000000    58.576000     2
  NG2R50   CG2R51   CG2R51   NG2R61     9     0.000000     6.024960     2
  NG2R50   CG2R51   CG2R51   NG2RC0     9   180.000000    41.840000     2
  NG2R50   CG2R51   CG2R51   OG2R50     9   180.000000    58.576000     2
  NG2R50   CG2R51   CG2R51    OG311     9   180.000000     1.363147     2
  NG2R50   CG2R51   CG2R51    OG312     9   180.000000     0.064852     2
  NG2R50   CG2R51   CG2R51   SG2R50     9   180.000000    29.288000     2
  NG2R50   CG2R51   CG2R51     FGR1     9   180.000000    12.049920     2
  NG2R50   CG2R51   CG2R51    HGR51     9   180.000000    11.296800     2
  NG2R50   CG2R51   CG2R51    HGR52     9   180.000000    12.552000     2
  NG2R50   CG2R51   CG2R51      CT3     9   180.000000    12.552000     2
  NG2R50   CG2R51   CG2R57   CG2R57     9     0.000000     0.000000     2
  NG2R50   CG2R51   CG2R57   OG2R50     9   180.000000    21.087360     2
  NG2R50   CG2R51   CG2R61   CG2R61     9   180.000000     4.100320     2
  NG2R50   CG2R51   CG2R61   CG2R61     9     0.000000     0.000000     4
  NG2R50   CG2R51   CG2RC0   CG2R61     9   180.000000     8.368000     2
  NG2R50   CG2R51   CG2RC0   NG2RC0     9   180.000000     7.782240     2
  NG2R50   CG2R51    CG301    CG311     9   180.000000     5.062640     3
  NG2R50   CG2R51    CG301    CG321     9   180.000000     3.891120     2
  NG2R50   CG2R51    CG301    CG321     9     0.000000     3.514560     3
  NG2R50   CG2R51    CG301    NG2S0     9     0.000000     0.209200     1
  NG2R50   CG2R51    CG301    NG2S0     9   180.000000     8.200640     2
  NG2R50   CG2R51    CG301    NG2S0     9     0.000000     1.757280     3
  NG2R50   CG2R51    CG301    NG2S0     9   180.000000     0.125520     6
  NG2R50   CG2R51    CG312     FGA2     9     0.000000     0.334720     3
  NG2R50   CG2R51    CG312     HGA7     9     0.000000     4.142160     3
  NG2R50   CG2R51    CG321   CG2R51     9     0.000000     0.794960     3
  NG2R50   CG2R51    CG321    CG301     9     0.000000     0.794960     3
  NG2R50   CG2R51    CG321    CG311     9     0.000000     0.794960     3
  NG2R50   CG2R51    CG321    CG314     9     0.000000     0.794960     3
  NG2R50   CG2R51    CG321    CG321     9     0.000000     0.794960     3
  NG2R50   CG2R51    CG321    CG324     9     0.000000     0.794960     3
  NG2R50   CG2R51    CG321    CG331     9     0.000000     0.794960     3
  NG2R50   CG2R51    CG321    NG2S1     9   180.000000     1.087840     1
  NG2R50   CG2R51    CG321    NG2S1     9     0.000000     4.895280     2
  NG2R50   CG2R51    CG321    NG2S1     9   180.000000     4.267680     3
  NG2R50   CG2R51    CG321    NG2S1     9   180.000000     1.171520     6
  NG2R50   CG2R51    CG321    NG311     9   180.000000     8.911920     2
  NG2R50   CG2R51    CG321    NG311     9     0.000000     0.000000     3
  NG2R50   CG2R51    CG321     HGA2     9     0.000000     0.794960     3
  NG2R50   CG2R51    CG324    NG3P2     9   180.000000     8.577200     2
  NG2R50   CG2R51    CG324     HGA2     9     0.000000     0.794960     3
  NG2R50   CG2R51    CG331     HGA3     9     0.000000     0.794960     3
  NG2R50   CG2R51   CG3C50    CG331     9   180.000000     2.384880     3
  NG2R50   CG2R51   CG3C50   OG3C51     9   180.000000    11.631520     2
  NG2R50   CG2R51   CG3C52   CG3C52     9   180.000000    11.715200     3
  NG2R50   CG2R51   CG3C52   OG3C51     9   180.000000     4.309520     2
  NG2R50   CG2R51   CG3C52     HGA2     9     0.000000     0.000000     3
  NG2R50   CG2R51   CG3C54   NG2R52     9   180.000000     2.384880     2
  NG2R50   CG2R51   CG3C54     HGA2     9     0.000000     5.857600     3
  NG2R50   CG2R51   NG2R51    CG331     9   180.000000     4.058480     2
  NG2R50   CG2R51   NG2R51   NG2R50     9   180.000000    56.065600     2
  NG2R50   CG2R51    OG311     HGP1     9     0.000000     6.778080     1
  NG2R50   CG2R51    OG311     HGP1     9   180.000000     4.602400     2
  NG2R50   CG2R51      CT2      HA2     9     0.000000     0.794960     3
  NG2R50   CG2R52   CG2R52   NG2R50     9   180.000000    39.748000     2
  NG2R50   CG2R52   CG2R52    HGR52     9   180.000000    16.317600     2
  NG2R50   CG2R52   CG2R57   CG2R51     9   180.000000    39.287760     2
  NG2R50   CG2R52   CG2R57   CG2R57     9     0.000000     0.000000     2
  NG2R50   CG2R52   CG2R57   CG3C53     9   180.000000    36.986560     2
  NG2R50   CG2R52   CG2R57   NG2R50     9   180.000000    34.601680     2
  NG2R50   CG2R52   CG2R57   NG2R57     9   180.000000    14.727680     2
  NG2R50   CG2R52   CG2R61   CG2R61     9   180.000000     4.811600     2
  NG2R50   CG2R52   CG2R61   CG2R61     9     0.000000     2.928800     4
  NG2R50   CG2R52   CG2R61   CG2R64     9     0.000000     7.112800     1
  NG2R50   CG2R52   CG2R61   CG2R64     9   180.000000     6.401520     2
  NG2R50   CG2R52   CG2R61   CG2R64     9     0.000000     7.489360     3
  NG2R50   CG2R52   CG2R61   NG2R62     9     0.000000     3.305360     2
  NG2R50   CG2R52   CG2R61   NG2R62     9     0.000000    14.058240     3
  NG2R50   CG2R52   CG2R61   NG2R62     9   180.000000     4.602400     4
  NG2R50   CG2R52   CG2R62   CG2R62     9     0.000000     2.217520     2
  NG2R50   CG2R52   CG2R62   CG2R62     9   180.000000     2.761440     4
  NG2R50   CG2R52   CG2R62   NG2R61     9     0.000000     1.840960     2
  NG2R50   CG2R52   CG2R62   NG2R61     9     0.000000     2.761440     4
  NG2R50   CG2R52   CG2RC0   CG2R61     9   180.000000     8.368000     2
  NG2R50   CG2R52   CG2RC0   CG2R62     9   180.000000     8.368000     2
  NG2R50   CG2R52   CG2RC0   CG2R63     9   180.000000     8.368000     2
  NG2R50   CG2R52   CG2RC0   CG2R64     9   180.000000     8.368000     2
  NG2R50   CG2R52   CG2RC0   CG2R66     9   180.000000     8.368000     2
  NG2R50   CG2R52   CG2RC0   CG2RC0     9   180.000000    33.472000     2
  NG2R50   CG2R52   CG2RC0   NG2R62     9     0.000000     3.723760     2
  NG2R50   CG2R52    CG301    CG321     9     0.000000     4.309520     2
  NG2R50   CG2R52    CG301    CG321     9     0.000000     0.753120     3
  NG2R50   CG2R52    CG301    CG324     9   180.000000     0.000000     3
  NG2R50   CG2R52    CG301    CG324     9     0.000000     2.677760     4
  NG2R50   CG2R52    CG301    CG331     9   180.000000     2.301200     3
  NG2R50   CG2R52    CG302     FGA3     9     0.000000     0.000000     3
  NG2R50   CG2R52    CG302     FGA3     9   180.000000     0.167360     6
  NG2R50   CG2R52    CG311    CG321     9     0.000000     0.794960     3
  NG2R50   CG2R52    CG311    NG2O1     9   180.000000     6.903600     1
  NG2R50   CG2R52    CG311    NG2O1     9   180.000000     0.000000     2
  NG2R50   CG2R52    CG311    NG2O1     9   180.000000     1.924640     3
  NG2R50   CG2R52    CG311    NG2O1     9   180.000000     0.251040     6
  NG2R50   CG2R52    CG311    NG321     9   180.000000     1.631760     3
  NG2R50   CG2R52    CG311    OG301     9   180.000000     1.799120     2
  NG2R50   CG2R52    CG311    OG301     9     0.000000     0.543920     3
  NG2R50   CG2R52    CG311     HGA1     9     0.000000     0.794960     3
  NG2R50   CG2R52    CG312    CG321     9   180.000000     5.564720     2
  NG2R50   CG2R52    CG312    CG321     9     0.000000     0.125520     3
  NG2R50   CG2R52    CG312     FGA2     9     0.000000     0.000000     2
  NG2R50   CG2R52    CG312     FGA2     9   180.000000     1.506240     3
  NG2R50   CG2R52    CG314    CG321     9     0.000000     0.794960     3
  NG2R50   CG2R52    CG314    NG3P3     9   180.000000     3.849280     3
  NG2R50   CG2R52    CG314     HGA1     9     0.000000     0.794960     3
  NG2R50   CG2R52    CG321    CG301     9     0.000000     0.794960     3
  NG2R50   CG2R52    CG321    CG314     9     0.000000     0.794960     3
  NG2R50   CG2R52    CG321    CG321     9     0.000000     0.794960     3
  NG2R50   CG2R52    CG321    CG324     9     0.000000     0.794960     3
  NG2R50   CG2R52    CG321    NG301     9   180.000000     1.799120     2
  NG2R50   CG2R52    CG321    NG301     9     0.000000     0.041840     3
  NG2R50   CG2R52    CG321    OG311     9   180.000000     3.138000     3
  NG2R50   CG2R52    CG321    SG311     9     0.000000     0.000000     1
  NG2R50   CG2R52    CG321    SG311     9     0.000000     0.167360     2
  NG2R50   CG2R52    CG321     HGA2     9     0.000000     0.794960     3
  NG2R50   CG2R52    CG331     HGA3     9     0.000000     0.000000     3
  NG2R50   CG2R52   CG3C31   CG3C31     9   180.000000     1.589920     3
  NG2R50   CG2R52   CG3C31   CG3C31     9     0.000000     1.506240     4
  NG2R50   CG2R52   CG3C31     HGA1     9     0.000000     0.000000     3
  NG2R50   CG2R52   CG3C41   CG2R53     9   180.000000     5.690240     2
  NG2R50   CG2R52   CG3C41   CG2R53     9   180.000000     7.196480     3
  NG2R50   CG2R52   CG3C41   CG3C41     9   180.000000     6.276000     2
  NG2R50   CG2R52   CG3C41   CG3C41     9     0.000000     6.443360     3
  NG2R50   CG2R52   CG3C50   CG2R53     9     0.000000     0.125520     2
  NG2R50   CG2R52   CG3C50   CG2R53     9     0.000000     0.125520     3
  NG2R50   CG2R52   CG3C50   CG2RC0     9     0.000000     0.000000     2
  NG2R50   CG2R52   CG3C50   CG2RC0     9   180.000000     2.761440     3
  NG2R50   CG2R52   CG3C50    CG321     9     0.000000     7.573040     3
  NG2R50   CG2R52   CG3C50    CG331     9   180.000000     0.460240     2
  NG2R50   CG2R52   CG3C50    CG331     9     0.000000     2.552240     3
  NG2R50   CG2R52   CG3C51   CG2R53     9   180.000000    14.644000     3
  NG2R50   CG2R52   CG3C51    CG331     9   180.000000     3.305360     2
  NG2R50   CG2R52   CG3C51    CG331     9     0.000000    11.506000     3
  NG2R50   CG2R52   CG3C51     HGA1     9     0.000000     5.857600     3
  NG2R50   CG2R52   CG3C52   CG2R51     9   180.000000    14.644000     3
  NG2R50   CG2R52   CG3C52   CG2RC0     9   180.000000    14.644000     3
  NG2R50   CG2R52   CG3C52   CG3C50     9   180.000000    11.715200     3
  NG2R50   CG2R52   CG3C52   CG3C52     9   180.000000    11.715200     3
  NG2R50   CG2R52   CG3C52   NG3C51     9   180.000000     3.640080     2
  NG2R50   CG2R52   CG3C52   NG3C51     9   180.000000     1.338880     3
  NG2R50   CG2R52   CG3C52     HGA2     9     0.000000     5.857600     3
  NG2R50   CG2R52   CG3C54   NG2R52     9   180.000000    28.451200     2
  NG2R50   CG2R52   CG3C54   NG2R52     9   180.000000     2.677760     3
  NG2R50   CG2R52   CG3C54     HGA2     9     0.000000     5.857600     3
  NG2R50   CG2R52   CG3RC1    CG321     9     0.000000     3.765600     3
  NG2R50   CG2R52   CG3RC1   CG3C51     9     0.000000     0.251040     2
  NG2R50   CG2R52   CG3RC1   CG3C51     9     0.000000     2.928800     3
  NG2R50   CG2R52   CG3RC1     HGA1     9     0.000000     0.000000     3
  NG2R50   CG2R52    OG301    CG331     9   180.000000     0.418400     2
  NG2R50   CG2R52    OG301    CG331     9   180.000000     4.518720     4
  NG2R50   CG2R53   CG2R53   NG2R50     9   180.000000     9.665040     2
  NG2R50   CG2R53   CG2R53    NG311     9   180.000000    18.325920     2
  NG2R50   CG2R53   CG2R53    NG3N1     9   180.000000    25.815280     2
  NG2R50   CG2R53   CG2R61   CG2R61     9   180.000000     3.723760     2
  NG2R50   CG2R53   CG2R61   CG2R61     9     0.000000     0.418400     4
  NG2R50   CG2R53   CG2R61   CG2RC0     9   180.000000     3.723760     2
  NG2R50   CG2R53   CG2R61   CG2RC0     9     0.000000     0.418400     4
  NG2R50   CG2R53   CG2R62   CG2R62     9   180.000000     3.723760     2
  NG2R50   CG2R53   CG2R62   CG2R62     9     0.000000     0.418400     4
  NG2R50   CG2R53   CG2R62   CG2R63     9   180.000000     3.723760     2
  NG2R50   CG2R53   CG2R62   CG2R63     9     0.000000     0.418400     4
  NG2R50   CG2R53   CG2R64   NG2R61     9   180.000000    13.263280     2
  NG2R50   CG2R53   CG2R64   NG2R61     9   180.000000     2.594080     4
  NG2R50   CG2R53   CG2R64   NG2R62     9   180.000000    13.179600     2
  NG2R50   CG2R53   CG2R64   NG2R62     9   180.000000     2.970640     4
  NG2R50   CG2R53   CG2RC0   CG2R61     9   180.000000    15.229760     2
  NG2R50   CG2R53   CG2RC0   CG2RC0     9   180.000000    11.171280     2
  NG2R50   CG2R53   CG2RC7   CG2R51     9   180.000000    51.797920     2
  NG2R50   CG2R53   CG2RC7   CG2R71     9   180.000000    13.472480     2
  NG2R50   CG2R53    CG301    CG1T1     9     0.000000     0.376560     1
  NG2R50   CG2R53    CG301    CG1T1     9     0.000000     0.083680     2
  NG2R50   CG2R53    CG301    CG1T1     9     0.000000     0.167360     3
  NG2R50   CG2R53    CG301    CG1T1     9     0.000000     2.761440     6
  NG2R50   CG2R53    CG301    CG331     9   180.000000     1.506240     1
  NG2R50   CG2R53    CG301    CG331     9     0.000000     0.041840     2
  NG2R50   CG2R53    CG301    CG331     9   180.000000     1.171520     3
  NG2R50   CG2R53    CG301    CG331     9     0.000000     0.125520     6
  NG2R50   CG2R53    CG301    NG2S1     9   180.000000     0.000000     1
  NG2R50   CG2R53    CG301    NG2S1     9     0.000000     0.041840     2
  NG2R50   CG2R53    CG301    NG2S1     9   180.000000     6.276000     3
  NG2R50   CG2R53    CG301    NG2S1     9     0.000000     0.418400     6
  NG2R50   CG2R53    CG301    OG311     9   180.000000     1.673600     1
  NG2R50   CG2R53    CG301    OG311     9   180.000000     3.096160     2
  NG2R50   CG2R53    CG301    OG311     9     0.000000     2.217520     3
  NG2R50   CG2R53    CG301    OG311     9   180.000000     2.384880     6
  NG2R50   CG2R53    CG302     FGA3     9   180.000000     0.041840     1
  NG2R50   CG2R53    CG302     FGA3     9     0.000000     0.000000     2
  NG2R50   CG2R53    CG302     FGA3     9     0.000000    11.840720     3
  NG2R50   CG2R53    CG302     FGA3     9     0.000000     2.677760     6
  NG2R50   CG2R53    CG311    CG2O2     9   180.000000     4.393200     1
  NG2R50   CG2R53    CG311    CG2O2     9   180.000000    14.434800     2
  NG2R50   CG2R53    CG311    CG2O2     9     0.000000     2.510400     3
  NG2R50   CG2R53    CG311    CG2O2     9   180.000000     0.627600     6
  NG2R50   CG2R53    CG311    CG2O3     9   180.000000     0.000000     1
  NG2R50   CG2R53    CG311    CG2O3     9   180.000000     0.041840     2
  NG2R50   CG2R53    CG311    CG2O3     9     0.000000     0.418400     3
  NG2R50   CG2R53    CG311    CG2O3     9   180.000000     1.004160     6
  NG2R50   CG2R53    CG311    CG311     9   180.000000     1.522139     1
  NG2R50   CG2R53    CG311    CG311     9     0.000000     0.062342     2
  NG2R50   CG2R53    CG311    CG311     9   180.000000     1.188674     3
  NG2R50   CG2R53    CG311    CG311     9     0.000000     0.123428     6
  NG2R50   CG2R53    CG311    CG321     9   180.000000     1.522139     1
  NG2R50   CG2R53    CG311    CG321     9     0.000000     0.062342     2
  NG2R50   CG2R53    CG311    CG321     9   180.000000     1.188674     3
  NG2R50   CG2R53    CG311    CG321     9     0.000000     0.123428     6
  NG2R50   CG2R53    CG311    CG324     9     0.000000    10.920240     1
  NG2R50   CG2R53    CG311    CG324     9     0.000000     1.966480     2
  NG2R50   CG2R53    CG311    CG324     9   180.000000     0.794960     3
  NG2R50   CG2R53    CG311    CG324     9     0.000000     1.840960     6
  NG2R50   CG2R53    CG311    CG331     9   180.000000     1.522139     1
  NG2R50   CG2R53    CG311    CG331     9     0.000000     0.062342     2
  NG2R50   CG2R53    CG311    CG331     9   180.000000     1.188674     3
  NG2R50   CG2R53    CG311    CG331     9     0.000000     0.123428     6
  NG2R50   CG2R53    CG311    NG2S1     9   180.000000     0.018828     1
  NG2R50   CG2R53    CG311    NG2S1     9     0.000000     0.035564     2
  NG2R50   CG2R53    CG311    NG2S1     9   180.000000     6.273908     3
  NG2R50   CG2R53    CG311    NG2S1     9     0.000000     0.411706     6
  NG2R50   CG2R53    CG311    NG321     9   180.000000     0.460240     1
  NG2R50   CG2R53    CG311    NG321     9   180.000000     5.648400     2
  NG2R50   CG2R53    CG311    NG321     9   180.000000     2.175680     3
  NG2R50   CG2R53    CG311    NG321     9     0.000000     3.556400     6
  NG2R50   CG2R53    CG311     HGA1     9     0.000000     0.794960     3
  NG2R50   CG2R53    CG314    CG331     9   180.000000     1.506240     1
  NG2R50   CG2R53    CG314    CG331     9     0.000000     0.041840     2
  NG2R50   CG2R53    CG314    CG331     9   180.000000     1.171520     3
  NG2R50   CG2R53    CG314    CG331     9     0.000000     0.125520     6
  NG2R50   CG2R53    CG314    NG3P3     9   180.000000     4.393200     1
  NG2R50   CG2R53    CG314    NG3P3     9   180.000000     2.803280     2
  NG2R50   CG2R53    CG314    NG3P3     9   180.000000     0.962320     3
  NG2R50   CG2R53    CG314    NG3P3     9     0.000000     3.389040     6
  NG2R50   CG2R53    CG314     HGA1     9     0.000000     0.794960     3
  NG2R50   CG2R53    CG321    CG1N1     9   180.000000    10.250800     1
  NG2R50   CG2R53    CG321    CG1N1     9   180.000000     0.711280     2
  NG2R50   CG2R53    CG321    CG1N1     9   180.000000     5.146320     3
  NG2R50   CG2R53    CG321    CG1N1     9   180.000000     0.711280     6
  NG2R50   CG2R53    CG321    CG321     9   180.000000     1.522139     1
  NG2R50   CG2R53    CG321    CG321     9     0.000000     0.062342     2
  NG2R50   CG2R53    CG321    CG321     9   180.000000     1.188674     3
  NG2R50   CG2R53    CG321    CG321     9     0.000000     0.123428     6
  NG2R50   CG2R53    CG321    CG331     9   180.000000     1.522139     1
  NG2R50   CG2R53    CG321    CG331     9     0.000000     0.062342     2
  NG2R50   CG2R53    CG321    CG331     9   180.000000     1.188674     3
  NG2R50   CG2R53    CG321    CG331     9     0.000000     0.123428     6
  NG2R50   CG2R53    CG321    NG2S1     9   180.000000     0.018828     1
  NG2R50   CG2R53    CG321    NG2S1     9     0.000000     0.035564     2
  NG2R50   CG2R53    CG321    NG2S1     9   180.000000     6.273908     3
  NG2R50   CG2R53    CG321    NG2S1     9     0.000000     0.411706     6
  NG2R50   CG2R53    CG321    NG301     9   180.000000     0.000000     1
  NG2R50   CG2R53    CG321    NG301     9     0.000000     0.000000     2
  NG2R50   CG2R53    CG321    NG301     9   180.000000     7.573040     3
  NG2R50   CG2R53    CG321    NG301     9   180.000000     0.585760     6
  NG2R50   CG2R53    CG321    NG311     9   180.000000     0.418400     1
  NG2R50   CG2R53    CG321    NG311     9     0.000000     0.000000     2
  NG2R50   CG2R53    CG321    NG311     9   180.000000     7.865920     3
  NG2R50   CG2R53    CG321    NG311     9   180.000000     0.125520     6
  NG2R50   CG2R53    CG321    NG321     9     0.000000     0.585760     1
  NG2R50   CG2R53    CG321    NG321     9   180.000000     5.271840     2
  NG2R50   CG2R53    CG321   OG3C61     9   180.000000     0.000000     1
  NG2R50   CG2R53    CG321   OG3C61     9     0.000000     1.087840     2
  NG2R50   CG2R53    CG321   OG3C61     9   180.000000     5.104480     3
  NG2R50   CG2R53    CG321   OG3C61     9   180.000000     1.297040     6
  NG2R50   CG2R53    CG321     HGA2     9     0.000000     0.794960     3
  NG2R50   CG2R53    CG324    NG3P3     9   180.000000    15.899200     1
  NG2R50   CG2R53    CG324    NG3P3     9   180.000000     3.891120     2
  NG2R50   CG2R53    CG324    NG3P3     9   180.000000     3.138000     3
  NG2R50   CG2R53    CG324    NG3P3     9     0.000000     1.840960     6
  NG2R50   CG2R53    CG324     HGA2     9     0.000000     0.794960     3
  NG2R50   CG2R53    CG331     HGA3     9     0.000000     0.794960     3
  NG2R50   CG2R53   CG3C31   CG3C31     9   180.000000     2.259360     1
  NG2R50   CG2R53   CG3C31   CG3C31     9   180.000000     5.773920     2
  NG2R50   CG2R53   CG3C31   CG3C31     9     0.000000     2.092000     3
  NG2R50   CG2R53   CG3C31   CG3C31     9     0.000000     3.723760     4
  NG2R50   CG2R53   CG3C31   CG3C31     9     0.000000     1.171520     6
  NG2R50   CG2R53   CG3C31     HGA1     9     0.000000     0.000000     3
  NG2R50   CG2R53   CG3C41   CG3C41     9   180.000000     4.435040     1
  NG2R50   CG2R53   CG3C41   CG3C41     9   180.000000     0.502080     2
  NG2R50   CG2R53   CG3C41   CG3C41     9   180.000000     1.799120     3
  NG2R50   CG2R53   CG3C41   CG3C41     9     0.000000     0.460240     4
  NG2R50   CG2R53   CG3C41     HGA1     9     0.000000     0.000000     3
  NG2R50   CG2R53   CG3C50   CG2RC0     9     0.000000     0.000000     2
  NG2R50   CG2R53   CG3C50   CG2RC0     9     0.000000     4.895280     3
  NG2R50   CG2R53   CG3C50    CG331     9     0.000000     4.142160     3
  NG2R50   CG2R53   CG3C52   CG3C52     9     0.000000     0.543920     2
  NG2R50   CG2R53   CG3C52   CG3C52     9     0.000000     0.627600     3
  NG2R50   CG2R53   CG3C52   NG3C51     9   180.000000    10.041600     2
  NG2R50   CG2R53   CG3C52   NG3C51     9     0.000000     0.292880     3
  NG2R50   CG2R53   CG3C52    SG311     9     0.000000     0.000000     2
  NG2R50   CG2R53   CG3C52    SG311     9     0.000000     2.217520     3
  NG2R50   CG2R53   CG3C52     HGA2     9     0.000000     0.000000     3
  NG2R50   CG2R53    NG2D1   CG2R71     9   180.000000     0.000000     1
  NG2R50   CG2R53    NG2D1   CG2R71     9   180.000000    13.514320     2
  NG2R50   CG2R53    NG2D1   CG2R71     9     0.000000     0.376560     3
  NG2R50   CG2R53    NG2O1    OG2N1     9   180.000000     8.911920     2
  NG2R50   CG2R53    NG2P1   CG2D1O     9   180.000000     9.372160     2
  NG2R50   CG2R53    NG2P1   CG2D2O     9   180.000000     9.372160     2
  NG2R50   CG2R53    NG2P1     HGP2     9     0.000000     0.000000     2
  NG2R50   CG2R53   NG2R50   CG2R52     9   180.000000    41.840000     2
  NG2R50   CG2R53   NG2R50   CG2R53     9   180.000000    41.840000     2
  NG2R50   CG2R53   NG2R50   CG2RC0     9   180.000000    41.840000     2
  NG2R50   CG2R53   NG2R50   NG2R50     9   180.000000    52.514221     2
  NG2R50   CG2R53   NG2R50   NG2R51     9   180.000000    50.208000     2
  NG2R50   CG2R53   NG2R50   NG2RC0     9   180.000000    50.208000     2
  NG2R50   CG2R53   NG2R50   OG2R50     9   180.000000    50.208000     2
  NG2R50   CG2R53   NG2R50   SG2R50     9     0.000000     0.000000     2
  NG2R50   CG2R53   NG2R51   CG2R51     9   180.000000    58.576000     2
  NG2R50   CG2R53   NG2R51   CG2R53     9   180.000000    58.576000     2
  NG2R50   CG2R53   NG2R51   CG2R57     9   180.000000    58.576000     2
  NG2R50   CG2R53   NG2R51   CG2R61     9     0.000000     0.209200     2
  NG2R50   CG2R53   NG2R51   CG2R64     9   180.000000     2.092000     2
  NG2R50   CG2R53   NG2R51   CG2RC0     9   180.000000    25.104000     2
  NG2R50   CG2R53   NG2R51    CG301     9   180.000000    46.024000     2
  NG2R50   CG2R53   NG2R51    CG311     9   180.000000     6.234160     2
  NG2R50   CG2R53   NG2R51    CG321     9   180.000000    46.024000     2
  NG2R50   CG2R53   NG2R51    CG322     9   180.000000     8.158800     2
  NG2R50   CG2R53   NG2R51    CG331     9   180.000000    46.024000     2
  NG2R50   CG2R53   NG2R51   CG3C41     9   180.000000    46.024000     2
  NG2R50   CG2R53   NG2R51   CG3C50     9   180.000000    46.024000     2
  NG2R50   CG2R53   NG2R51   CG3C51     9   180.000000    46.024000     2
  NG2R50   CG2R53   NG2R51   CG3C52     9   180.000000    18.576960     2
  NG2R50   CG2R53   NG2R51   CG3RC1     9   180.000000     6.276000     2
  NG2R50   CG2R53   NG2R51   NG2R50     9   180.000000    41.840000     2
  NG2R50   CG2R53   NG2R51    NG3N1     9   180.000000    18.744320     2
  NG2R50   CG2R53   NG2R51    OG311     9   180.000000    13.681680     2
  NG2R50   CG2R53   NG2R51      PG2     9   180.000000     7.249198     2
  NG2R50   CG2R53   NG2R51    SG311     9     0.000000     0.000000     2
  NG2R50   CG2R53   NG2R51     HGP1     9   180.000000     4.184000     2
  NG2R50   CG2R53   NG2R51     CN7B     9   180.000000    46.024000     2
  NG2R50   CG2R53   NG2R52    CG324     9   180.000000    15.062400     2
  NG2R50   CG2R53   NG2R52   CG3C54     9   180.000000     9.748720     2
  NG2R50   CG2R53   NG2R57   CG2R57     9   180.000000    20.752640     2
  NG2R50   CG2R53   NG2R57   NG2R50     9   180.000000    29.999280     2
  NG2R50   CG2R53   NG2R61   CG2R62     9     0.000000     0.669440     1
  NG2R50   CG2R53   NG2R61   CG2R62     9   180.000000     2.928800     2
  NG2R50   CG2R53   NG2R61   CG2R62     9   180.000000     0.962320     3
  NG2R50   CG2R53   NG2RC0   CG2R61     9   180.000000    16.359440     2
  NG2R50   CG2R53   NG2RC0   CG2RC0     9   180.000000    26.191840     2
  NG2R50   CG2R53   NG2RC0   NG2R62     9     0.000000     0.000000     2
  NG2R50   CG2R53    NG2S1    CG2O1     9   180.000000    16.192080     1
  NG2R50   CG2R53    NG2S1    CG2O1     9     0.000000     0.000000     2
  NG2R50   CG2R53    NG2S1    CG2O1     9     0.000000     0.920480     3
  NG2R50   CG2R53    NG2S1     HGP1     9     0.000000     2.803280     2
  NG2R50   CG2R53    NG301    CG321     9   180.000000     4.727920     2
  NG2R50   CG2R53    NG301    CG321     9     0.000000     0.920480     3
  NG2R50   CG2R53    NG301    CG321     9     0.000000     1.297040     6
  NG2R50   CG2R53    NG311    CG1N1     9     0.000000     2.510400     1
  NG2R50   CG2R53    NG311    CG1N1     9   180.000000     0.460240     2
  NG2R50   CG2R53    NG311    CG321     9     0.000000     0.627600     1
  NG2R50   CG2R53    NG311    CG321     9   180.000000     0.167360     2
  NG2R50   CG2R53    NG311    CG321     9   180.000000     0.543920     4
  NG2R50   CG2R53    NG311    CG331     9   180.000000     5.062640     1
  NG2R50   CG2R53    NG311    CG331     9   180.000000     6.736240     2
  NG2R50   CG2R53    NG311   HGPAM1     9   180.000000     4.184000     2
  NG2R50   CG2R53    NG311   HGPAM1     9   180.000000     1.715440     4
  NG2R50   CG2R53    NG321   HGPAM2     9   180.000000     8.744560     2
  NG2R50   CG2R53    NG321   HGPAM2     9   180.000000     0.083680     6
  NG2R50   CG2R53   NG3C51    CG311     9   180.000000    13.263280     2
  NG2R50   CG2R53   NG3C51    CG311     9     0.000000     5.899440     4
  NG2R50   CG2R53   NG3C51    CG321     9   180.000000     0.209200     2
  NG2R50   CG2R53   NG3C51    CG321     9   180.000000     0.083680     4
  NG2R50   CG2R53   NG3C51    CG331     9   180.000000     6.610720     2
  NG2R50   CG2R53   NG3C51    CG331     9   180.000000     0.209200     4
  NG2R50   CG2R53   NG3C51   CG3C50     9   180.000000    16.736000     2
  NG2R50   CG2R53   NG3C51   CG3C52     9   180.000000    16.736000     2
  NG2R50   CG2R53   NG3C51   OG3C51     9   180.000000    38.241760     2
  NG2R50   CG2R53   NG3C51     HGP1     9     0.000000     5.020800     3
  NG2R50   CG2R53    NG3N1   CG2R53     9   180.000000     9.832400     2
  NG2R50   CG2R53    NG3N1    NG3N1     9   180.000000    14.685840     2
  NG2R50   CG2R53    NG3P0    CG324     9     0.000000     1.004160     3
  NG2R50   CG2R53    NG3P0    CG324     9     0.000000     1.129680     6
  NG2R50   CG2R53    NG3P0   CG3C53     9     0.000000     0.083680     2
  NG2R50   CG2R53    NG3P0   CG3C53     9     0.000000     1.715440     3
  NG2R50   CG2R53   OG2R50   CG2R51     9   180.000000    35.564000     2
  NG2R50   CG2R53   OG2R50   CG2R53     9   180.000000    24.141680     2
  NG2R50   CG2R53   OG2R50   CG2R57     9   180.000000    35.564000     2
  NG2R50   CG2R53   OG2R50   CG2RC0     9   180.000000    35.564000     2
  NG2R50   CG2R53   OG2R50   CG2RC7     9   180.000000    58.408640     2
  NG2R50   CG2R53   OG2R50   NG2R50     9   180.000000    37.656000     2
  NG2R50   CG2R53    OG301    CG331     9   180.000000    15.731840     2
  NG2R50   CG2R53   OG3C51   CG2R53     9   180.000000    20.878160     2
  NG2R50   CG2R53   OG3C51   CG3C51     9     0.000000     0.083680     2
  NG2R50   CG2R53   OG3C51   CG3C51     9     0.000000    10.836560     3
  NG2R50   CG2R53   OG3C51   CG3C52     9   180.000000    15.104240     2
  NG2R50   CG2R53   OG3C51   CG3C52     9   180.000000    11.798880     3
  NG2R50   CG2R53   SG2R50   CG2R51     9   180.000000    35.564000     2
  NG2R50   CG2R53   SG2R50   CG2RC0     9   180.000000    12.552000     2
  NG2R50   CG2R53   SG2R50   NG2R50     9   180.000000    44.559600     2
  NG2R50   CG2R53    SG311   CG3C50     9   180.000000     4.058480     1
  NG2R50   CG2R53    SG311   CG3C50     9   180.000000    11.673360     2
  NG2R50   CG2R53    SG3O2    NG321     9     0.000000     4.727920     1
  NG2R50   CG2R53    SG3O2    NG321     9     0.000000     0.669440     2
  NG2R50   CG2R53    SG3O2    NG321     9   180.000000     0.794960     3
  NG2R50   CG2R53    SG3O2    OG2P1     9   180.000000     0.000000     1
  NG2R50   CG2R53    SG3O2    OG2P1     9     0.000000     1.506240     2
  NG2R50   CG2R53    SG3O2    OG2P1     9   180.000000     1.506240     3
  NG2R50   CG2R53    SG3O2    OG2P1     9     0.000000     0.125520     6
  NG2R50   CG2R53    SG3O2    OG311     9     0.000000     0.209200     1
  NG2R50   CG2R53    SG3O2    OG311     9     0.000000     0.000000     2
  NG2R50   CG2R53    SG3O2    OG311     9     0.000000     1.255200     3
  NG2R50   CG2R57   CG2R57   NG2R50     9     0.000000     2.928800     2
  NG2R50   CG2R57   CG2R57   NG2R50     9     0.000000     9.874240     3
  NG2R50   CG2R57   CG2R57   NG2R50     9     0.000000     4.978960     4
  NG2R50   CG2R57   CG2R57   NG2R51     9   180.000000     0.000000     2
  NG2R50   CG2R57   CG2R57   NG2R51     9   180.000000     1.380720     3
  NG2R50   CG2R57   CG2R57   NG2R51     9   180.000000     3.012480     4
  NG2R50   CG2R57   CG2R57   OG2R50     9     0.000000     0.334720     2
  NG2R50   CG2R57   CG2R57   OG2R50     9     0.000000     0.669440     3
  NG2R50   CG2R57   CG2RC0   CG2R61     9     0.000000     0.543920     2
  NG2R50   CG2R57   CG2RC0   CG2RC0     9   180.000000    33.555680     2
  NG2R50   CG2R57   CG2RC0   NG2RC0     9   180.000000    15.104240     2
  NG2R50   CG2R57   CG3C50   CG2R53     9   180.000000     1.924640     1
  NG2R50   CG2R57   CG3C50   CG2R53     9   180.000000     0.209200     2
  NG2R50   CG2R57   CG3C50   CG2R53     9   180.000000     1.171520     3
  NG2R50   CG2R57   CG3C50    CG331     9     0.000000     0.878640     2
  NG2R50   CG2R57   CG3C50    CG331     9   180.000000     2.175680     3
  NG2R50   CG2R57   CG3C50   NG2R53     9     0.000000     0.167360     1
  NG2R50   CG2R57   CG3C50   NG2R53     9     0.000000     0.083680     2
  NG2R50   CG2R57   CG3C50   NG2R53     9     0.000000     7.238320     3
  NG2R50   CG2R57   CG3C51   CG2RC0     9   180.000000     0.585760     1
  NG2R50   CG2R57   CG3C51   CG2RC0     9   180.000000     0.878640     3
  NG2R50   CG2R57   CG3C51   CG3C52     9   180.000000     3.807440     1
  NG2R50   CG2R57   CG3C51   CG3C52     9     0.000000     2.050160     3
  NG2R50   CG2R57   CG3C51     HGA1     9     0.000000     0.000000     3
  NG2R50   CG2R57   CG3C53   CG3C52     9     0.000000     5.857600     2
  NG2R50   CG2R57   CG3C53   CG3C52     9     0.000000     0.836800     3
  NG2R50   CG2R57   CG3C53    NG3P2     9   180.000000    53.889920     3
  NG2R50   CG2R57   CG3C53     HGA1     9     0.000000     0.000000     3
  NG2R50   CG2R57   CG3RC1   CG3C51     9   180.000000    10.334480     3
  NG2R50   CG2R57   CG3RC1   CG3C52     9   180.000000     2.594080     3
  NG2R50   CG2R57   CG3RC1   CG3C52     9     0.000000     2.468560     6
  NG2R50   CG2R57   NG2R51   CG2R53     9   180.000000     1.631760     2
  NG2R50   CG2R57   NG2R51   CG2RC0     9   180.000000    44.559600     2
  NG2R50   CG2R57   NG2R51    CG321     9     0.000000     1.966480     2
  NG2R50   CG2R57   NG2R51    CG331     9     0.000000     0.962320     2
  NG2R50   CG2R57   NG2R51   NG2R50     9   180.000000    12.719360     2
  NG2R50   CG2R57   NG2R51     HGP1     9   180.000000     7.029120     2
  NG2R50   CG2R57   NG2R57   CG2R53     9   180.000000     2.468560     2
  NG2R50   CG2R57   NG2R57   CG2R53     9     0.000000     2.301200     4
  NG2R50   CG2R57   NG2R57   CG2R53     9     0.000000     0.627600     6
  NG2R50   CG2R57   NG2R57   CG2RC0     9     0.000000     0.000000     2
  NG2R50   CG2R57   NG2R57   CG2RC0     9   180.000000     3.681920     3
  NG2R50   CG2R57   NG2R57   CG2RC0     9   180.000000     0.418400     4
  NG2R50   CG2R57   NG2R57   CG2RC0     9   180.000000     1.631760     6
  NG2R50   CG2R57   NG2R57   CG3C51     9   180.000000     1.882800     2
  NG2R50   CG2R57   NG2R57   CG3C51     9     0.000000     0.543920     4
  NG2R50   CG2R57   NG2R57   CG3C51     9     0.000000     3.054320     6
  NG2R50   CG2R57   NG2R57   CG3C52     9   180.000000    11.506000     2
  NG2R50   CG2R57   NG2R57   CG3C52     9     0.000000     4.602400     4
  NG2R50   CG2R57   NG2R57   CG3C52     9   180.000000     2.175680     6
  NG2R50   CG2R57   NG2RC0   CG2R61     9   180.000000    13.305120     2
  NG2R50   CG2R57   NG2RC0   CG2RC0     9   180.000000    20.125040     2
  NG2R50   CG2R57   OG2R50   CG2R51     9   180.000000    20.794480     2
  NG2R50   CG2R57   OG2R50   CG2R53     9   180.000000     4.476880     2
  NG2R50   CG2R57   SG2R50   CG2R51     9   180.000000    25.313200     2
  NG2R50   CG2R57   SG2R50   CG2RC0     9   180.000000    16.024720     2
  NG2R50   CG2R57    SG311   CG3C52     9     0.000000     0.083680     2
  NG2R50   CG2R57    SG311   CG3C52     9     0.000000     1.380720     4
  NG2R50   CG2RC0   CG2RC0   NG2R50     9   180.000000     6.778080     2
  NG2R50   CG2RC0   CG2RC0   NG2R51     9   180.000000    41.840000     2
  NG2R50   CG2RC0   CG2RC0   NG2R61     9   180.000000    22.175200     2
  NG2R50   CG2RC0   CG2RC0   NG2R62     9   180.000000    29.288000     2
  NG2R50   CG2RC0   CG2RC0   NG2R67     9     0.000000     0.209200     2
  NG2R50   CG2RC0   CG2RC0   OG2R50     9     0.000000     0.000000     2
  NG2R50   CG2RC0   CG2RC0   SG2R50     9   180.000000    16.736000     2
  NG2R50   CG2RC0   NG2R61   CG2R61     9   180.000000    34.769040     2
  NG2R50   CG2RC0   NG2R61   CG2R62     9   180.000000     0.000000     2
  NG2R50   CG2RC0   NG2R61   CG2R63     9     0.000000     0.167360     2
  NG2R50   CG2RC0   NG2R61   CG2RC0     9   180.000000     0.000000     2
  NG2R50   CG2RC0   NG2R61    CG331     9   180.000000     0.836800     2
  NG2R50   CG2RC0   NG2R61   CG3C52     9   180.000000    11.757040     2
  NG2R50   CG2RC0   NG2R61     HGP1     9   180.000000     3.347200     2
  NG2R50   CG2RC0   NG2R62   CG2R64     9   180.000000     8.368000     2
  NG2R50   CG2RC0   NG2RC0   CG2R51     9   180.000000    29.288000     2
  NG2R50   CG2RC0   NG2RC0   CG2R53     9   180.000000    29.288000     2
  NG2R50   CG2RC0   NG2RC0   CG2R61     9   180.000000    12.552000     2
  NG2R50   CG2RC0   NG2RC0   CG2R63     9   180.000000    12.552000     2
  NG2R50   CG2RC0   NG2RC0   CG2R64     9   180.000000    12.552000     2
  NG2R50   CG2RC0   NG2RC0   CG2R66     9   180.000000    12.552000     2
  NG2R50   CG2RC0   NG2RC0   NG2R50     9   180.000000    39.999040     2
  NG2R50   CG2RC0   NG2RC0   NG2R62     9   180.000000    23.681440     2
  NG2R50   CG2RC7   CG2RC7   OG2R50     9   180.000000    20.836320     2
  NG2R50   CG3C41   CG3C41     HGA2     9     0.000000     0.000000     3
  NG2R50   CG3C41   OG3C51   NG3C51     9     0.000000     0.502080     2
  NG2R50   CG3C50   CG3C52   CG2R53     9     0.000000     3.012480     2
  NG2R50   CG3C50   CG3C52   CG2R53     9     0.000000     3.012480     3
  NG2R50   CG3C50   CG3C52   CG3C52     9   180.000000    14.644000     2
  NG2R50   CG3C50   CG3C52   CG3C52     9     0.000000     8.786400     3
  NG2R50   CG3C50   CG3C52     HGA2     9     0.000000     0.000000     3
  NG2R50   CG3C51   CG3C52   OG3C51     9     0.000000     0.000000     2
  NG2R50   CG3C51   CG3C52   OG3C51     9   180.000000     1.255200     3
  NG2R50   CG3C51   CG3C52     HGA2     9     0.000000     1.255200     3
  NG2R50   CG3C51   OG3C51   CG2R53     9   180.000000     0.000000     1
  NG2R50   CG3C51   OG3C51   CG2R53     9   180.000000    10.292640     2
  NG2R50   CG3C51   OG3C51   CG2R53     9   180.000000     0.083680     6
  NG2R50   CG3C52   CG3C52   NG2R61     9   180.000000     6.527040     2
  NG2R50   CG3C52   CG3C52   NG2R61     9     0.000000     3.389040     3
  NG2R50   CG3C52   CG3C52   NG3C51     9     0.000000     4.184000     3
  NG2R50   CG3C52   CG3C52   OG3C51     9     0.000000     0.000000     2
  NG2R50   CG3C52   CG3C52   OG3C51     9   180.000000     1.129680     3
  NG2R50   CG3C52   CG3C52     HGA2     9     0.000000     1.255200     3
  NG2R50   CG3C53    NG3P0   CG2R53     9     0.000000     0.041840     2
  NG2R50   CG3C53    NG3P0   CG2R53     9   180.000000     1.757280     3
  NG2R50   CG3C53    NG3P0    CG324     9     0.000000     0.794960     1
  NG2R50   CG3C53    NG3P0    CG324     9   180.000000     3.012480     3
  NG2R50   CG3C53    NG3P0    CG324     9   180.000000     0.251040     6
  NG2R50   CG3RC1   CG3RC1   NG3C51     9   180.000000    14.560320     2
  NG2R50   CG3RC1   CG3RC1   NG3C51     9     0.000000     3.389040     3
  NG2R50   CG3RC1   CG3RC1     HGA1     9     0.000000     0.000000     3
  NG2R50   NG2R50   NG2R50   NG2R51     9   180.000000    64.015200     2
  NG2R50   NG2R50   NG2R50   NG2R57     9   180.000000    64.015200     2
  NG2R50   NG2R50   NG2R50     HGP1     9   180.000000    58.576000     2
  NG2R50   NG2R50   NG2R50      CT2     9   180.000000    58.576000     2
  NG2R50   NG2R50   NG2R51   CG2R51     9   180.000000    35.564000     2
  NG2R50   NG2R50   NG2R51   CG2R53     9   180.000000    35.564000     2
  NG2R50   NG2R50   NG2R51   CG2R57     9   180.000000    35.564000     2
  NG2R50   NG2R50   NG2R51   CG2R61     9   180.000000    20.627120     2
  NG2R50   NG2R50   NG2R51    CG311     9   180.000000    10.460000     2
  NG2R50   NG2R50   NG2R51    CG321     9   180.000000    10.460000     2
  NG2R50   NG2R50   NG2R51    CG331     9   180.000000    10.460000     2
  NG2R50   NG2R50   NG2R51   NG2R50     9   180.000000    45.672126     2
  NG2R50   NG2R50   NG2R51    NG3N1     9     0.000000     0.920480     2
  NG2R50   NG2R50   NG2R51    SG311     9   180.000000    17.572800     2
  NG2R50   NG2R50   NG2R51     HGP1     9   180.000000    10.460000     2
  NG2R50   NG2R50   NG2R51      CT2     9   180.000000    10.460000     2
  NG2R50   NG2R50   NG2R52   CG2R53     9   180.000000    71.630080     2
  NG2R50   NG2R50   NG2R52   CG2R61     9   180.000000    34.183280     2
  NG2R50   NG2R50   NG2R52    CG334     9   180.000000    22.760960     2
  NG2R50   NG2R50   NG2R57   CG2R53     9   180.000000    37.279440     2
  NG2R50   NG2R50   NG2R57   CG2R57     9   180.000000     7.196480     2
  NG2R50   NG2R50   NG3C51    CG331     9   180.000000    14.016400     2
  NG2R50   NG2R50   NG3C51   CG3RC1     9     0.000000     0.000000     2
  NG2R50   NG2R50   OG2R50   CG2R51     9   180.000000    35.564000     2
  NG2R50   NG2R50   SG2R50   CG2R51     9     0.000000     0.000000     2
  NG2R50   NG2R50      CT2      CT2     9     0.000000     8.535360     1
  NG2R50   NG2R50      CT2      CT2     9     0.000000     1.840960     2
  NG2R50   NG2R50      CT2      CT2     9   180.000000     0.543920     3
  NG2R50   NG2R50      CT2      HA2     9     0.000000     0.000000     3
  NG2R50   NG2R51    NG3N1     HGP1     9   180.000000     3.598240     3
  NG2R50   NG2R51    NG3N1     HGP1     9   180.000000     0.794960     6
  NG2R50   NG2R51    SG311     HGP3     9     0.000000     0.962320     1
  NG2R50   NG2R51    SG311     HGP3     9     0.000000     2.928800     2
  NG2R53   CG251O   CG25C1   CG2R53     9   180.000000    14.225600     2
  NG2R53   CG251O   CG25C1   CG2RC0     9   180.000000    14.225600     2
  NG2R53   CG251O   CG2DC1   CG2R61     9   180.000000    14.853200     2
  NG2R53   CG251O   CG2DC1     HGA4     9   180.000000    21.463920     2
  NG2R53   CG251O   CG2DC3     HGA5     9   180.000000    19.246400     2
  NG2R53   CG251O   CG2R53   NG2R53     9   180.000000     0.836800     2
  NG2R53   CG251O   CG2R53    OG2D1     9   180.000000    18.828000     2
  NG2R53   CG251O   OG3C51   CG2R53     9   180.000000    13.012240     2
  NG2R53   CG251O   OG3C51   CG2R53     9     0.000000     2.133840     3
  NG2R53   CG252O   CG25C2   CG2R53     9   180.000000    14.225600     2
  NG2R53   CG252O   CG25C2   CG2RC0     9   180.000000    14.225600     2
  NG2R53   CG252O   CG2DC2   CG2R61     9   180.000000    14.853200     2
  NG2R53   CG252O   CG2DC2     HGA4     9   180.000000    21.463920     2
  NG2R53   CG252O   CG2DC3     HGA5     9   180.000000    19.246400     2
  NG2R53   CG252O   CG2R53   NG2R53     9   180.000000     0.836800     2
  NG2R53   CG252O   CG2R53    OG2D1     9   180.000000    18.828000     2
  NG2R53   CG252O   OG3C51   CG2R53     9   180.000000    13.012240     2
  NG2R53   CG252O   OG3C51   CG2R53     9     0.000000     2.133840     3
  NG2R53    CG2O1    CG331     HGA3     9     0.000000     0.000000     3
  NG2R53   CG2R53   CG2R53    OG2D1     9     0.000000     0.376560     2
  NG2R53   CG2R53   CG2R53   OG3C51     9   180.000000     2.761440     1
  NG2R53   CG2R53   CG2R53   OG3C51     9     0.000000     0.000000     2
  NG2R53   CG2R53   CG3C31   CG3C31     9     0.000000     0.041840     1
  NG2R53   CG2R53   CG3C31   CG3C31     9     0.000000     8.702720     2
  NG2R53   CG2R53   CG3C31   CG3C31     9   180.000000    15.438960     3
  NG2R53   CG2R53   CG3C31   CG3C31     9   180.000000     1.506240     6
  NG2R53   CG2R53   CG3C31   NG2R53     9     0.000000     4.184000     1
  NG2R53   CG2R53   CG3C31   NG2R53     9     0.000000     0.000000     2
  NG2R53   CG2R53   CG3C31   NG2R53     9     0.000000     3.263520     3
  NG2R53   CG2R53   CG3C31   NG2R53     9   180.000000     0.753120     6
  NG2R53   CG2R53   CG3C41   CG2R52     9     0.000000     0.000000     2
  NG2R53   CG2R53   CG3C41   CG2R52     9     0.000000     2.552240     3
  NG2R53   CG2R53   CG3C41   CG3C41     9     0.000000     3.765600     3
  NG2R53   CG2R53   CG3C41   NG2R53     9     0.000000     0.376560     2
  NG2R53   CG2R53   CG3C41   NG2R53     9     0.000000    13.765360     3
  NG2R53   CG2R53   CG3C50   CG2R52     9   180.000000     4.184000     3
  NG2R53   CG2R53   CG3C50   CG2R53     9   180.000000     4.184000     3
  NG2R53   CG2R53   CG3C50   CG2R57     9   180.000000     4.184000     3
  NG2R53   CG2R53   CG3C50   CG2R61     9     0.000000    12.970400     3
  NG2R53   CG2R53   CG3C50   CG2RC0     9   180.000000     4.184000     3
  NG2R53   CG2R53   CG3C50    CG302     9   180.000000     0.167360     3
  NG2R53   CG2R53   CG3C50    CG321     9   180.000000     4.184000     3
  NG2R53   CG2R53   CG3C50    CG331     9     0.000000    11.422320     3
  NG2R53   CG2R53   CG3C50   CG3C50     9   180.000000     4.393200     3
  NG2R53   CG2R53   CG3C50   CG3C51     9   180.000000     4.393200     3
  NG2R53   CG2R53   CG3C50   CG3C52     9   180.000000     4.393200     3
  NG2R53   CG2R53   CG3C50   CG3RC1     9   180.000000     4.393200     3
  NG2R53   CG2R53   CG3C50   NG2R50     9   180.000000     3.974800     2
  NG2R53   CG2R53   CG3C50   NG2R50     9     0.000000    13.346960     3
  NG2R53   CG2R53   CG3C50   NG2R53     9   180.000000     1.631760     2
  NG2R53   CG2R53   CG3C50   NG2R53     9     0.000000     5.983120     3
  NG2R53   CG2R53   CG3C50    NG311     9   180.000000     1.882800     3
  NG2R53   CG2R53   CG3C50   NG3C51     9     0.000000     1.966480     3
  NG2R53   CG2R53   CG3C50    OG311     9     0.000000     3.054320     3
  NG2R53   CG2R53   CG3C50   OG3C51     9   180.000000     1.715440     2
  NG2R53   CG2R53   CG3C50   OG3C51     9     0.000000     4.184000     3
  NG2R53   CG2R53   CG3C51    CG2O2     9   180.000000     0.711280     2
  NG2R53   CG2R53   CG3C51    CG2O2     9     0.000000     4.225840     3
  NG2R53   CG2R53   CG3C51   CG2R51     9     0.000000     0.000000     2
  NG2R53   CG2R53   CG3C51   CG2R51     9     0.000000    12.928560     3
  NG2R53   CG2R53   CG3C51   CG2R52     9   180.000000     5.522880     2
  NG2R53   CG2R53   CG3C51   CG2R52     9   180.000000     3.974800     3
  NG2R53   CG2R53   CG3C51   CG2R53     9   180.000000     9.288480     2
  NG2R53   CG2R53   CG3C51   CG2R53     9     0.000000     2.259360     3
  NG2R53   CG2R53   CG3C51    CG301     9   180.000000     4.184000     3
  NG2R53   CG2R53   CG3C51    CG331     9   180.000000     4.184000     3
  NG2R53   CG2R53   CG3C51   CG3C50     9   180.000000     4.393200     3
  NG2R53   CG2R53   CG3C51   CG3C51     9   180.000000     4.393200     3
  NG2R53   CG2R53   CG3C51   CG3C52     9   180.000000     4.393200     3
  NG2R53   CG2R53   CG3C51   NG2R53     9     0.000000     0.167360     2
  NG2R53   CG2R53   CG3C51   NG2R53     9   180.000000     3.807440     3
  NG2R53   CG2R53   CG3C51    NG2S1     9   180.000000     4.461818     3
  NG2R53   CG2R53   CG3C51    SG311     9   180.000000     2.891562     3
  NG2R53   CG2R53   CG3C51     HGA1     9   180.000000     0.000000     3
  NG2R53   CG2R53   CG3C52   CG25C1     9   180.000000     0.334720     2
  NG2R53   CG2R53   CG3C52   CG25C1     9   180.000000     3.514560     3
  NG2R53   CG2R53   CG3C52   CG25C2     9   180.000000     0.334720     2
  NG2R53   CG2R53   CG3C52   CG25C2     9   180.000000     3.514560     3
  NG2R53   CG2R53   CG3C52   CG2RC0     9   180.000000     0.711280     2
  NG2R53   CG2R53   CG3C52   CG2RC0     9     0.000000     1.882800     3
  NG2R53   CG2R53   CG3C52   CG3C50     9   180.000000     4.393200     3
  NG2R53   CG2R53   CG3C52   CG3C51     9   180.000000     4.393200     3
  NG2R53   CG2R53   CG3C52   CG3C52     9   180.000000     4.393200     3
  NG2R53   CG2R53   CG3C52   CG3C53     9   180.000000     4.895280     2
  NG2R53   CG2R53   CG3C52   CG3C53     9   180.000000     1.966480     3
  NG2R53   CG2R53   CG3C52   NG2R53     9   180.000000     1.882800     2
  NG2R53   CG2R53   CG3C52   NG2R53     9   180.000000     0.000000     3
  NG2R53   CG2R53   CG3C52    SG311     9   180.000000     2.886960     3
  NG2R53   CG2R53   CG3C52    SG3O3     9     0.000000     1.046000     3
  NG2R53   CG2R53   CG3C52    SG3O3     9   180.000000     1.548080     6
  NG2R53   CG2R53   CG3C52     HGA2     9   180.000000     0.000000     3
  NG2R53   CG2R53   CG3RC1   CG3C41     9     0.000000     2.092000     3
  NG2R53   CG2R53   CG3RC1   CG3C53     9   180.000000     0.669440     2
  NG2R53   CG2R53   CG3RC1   CG3C53     9     0.000000     1.464400     3
  NG2R53   CG2R53   CG3RC1   CG3C54     9   180.000000     1.840960     2
  NG2R53   CG2R53   CG3RC1   CG3C54     9     0.000000     1.297040     3
  NG2R53   CG2R53   CG3RC1   CG3RC1     9   180.000000    16.652320     2
  NG2R53   CG2R53   CG3RC1   CG3RC1     9   180.000000     1.966480     3
  NG2R53   CG2R53   CG3RC1   NG2R53     9   180.000000     2.970640     2
  NG2R53   CG2R53   CG3RC1   NG2R53     9     0.000000    13.221440     3
  NG2R53   CG2R53   CG3RC1     HGA1     9   180.000000     0.000000     3
  NG2R53   CG2R53   NG2R53   CG251O     9   180.000000     2.092000     2
  NG2R53   CG2R53   NG2R53   CG252O     9   180.000000     2.092000     2
  NG2R53   CG2R53   NG2R53   CG2R53     9   180.000000     2.092000     2
  NG2R53   CG2R53   NG2R53   CG2R64     9     0.000000     0.083680     2
  NG2R53   CG2R53   NG2R53    CG301     9     0.000000     1.129680     2
  NG2R53   CG2R53   NG2R53    CG301     9     0.000000     1.840960     3
  NG2R53   CG2R53   NG2R53    CG311     9   180.000000     2.092000     2
  NG2R53   CG2R53   NG2R53    CG331     9   180.000000     0.878640     2
  NG2R53   CG2R53   NG2R53    CG331     9   180.000000     3.096160     3
  NG2R53   CG2R53   NG2R53    CG331     9     0.000000     2.719600     6
  NG2R53   CG2R53   NG2R53   CG3C31     9   180.000000     2.092000     2
  NG2R53   CG2R53   NG2R53   CG3C41     9   180.000000     2.092000     2
  NG2R53   CG2R53   NG2R53   CG3C50     9   180.000000     2.050160     2
  NG2R53   CG2R53   NG2R53   CG3C51     9   180.000000     2.092000     2
  NG2R53   CG2R53   NG2R53   CG3C52     9   180.000000     2.092000     2
  NG2R53   CG2R53   NG2R53   CG3RC1     9   180.000000     2.092000     2
  NG2R53   CG2R53   NG2R53   NG3C51     9     0.000000     0.251040     2
  NG2R53   CG2R53   NG2R53     HGP1     9   180.000000     3.347200     2
  NG2R53   CG2R53   OG3C51   CG3C41     9   180.000000    12.049920     2
  NG2R53   CG2R53   OG3C51   CG3C41     9   180.000000     0.251040     3
  NG2R53   CG2R53    SG311   CG251O     9     0.000000     1.046000     1
  NG2R53   CG2R53    SG311   CG251O     9   180.000000     5.439200     2
  NG2R53   CG2R53    SG311   CG252O     9     0.000000     1.046000     1
  NG2R53   CG2R53    SG311   CG252O     9   180.000000     5.439200     2
  NG2R53   CG2R53    SG311   CG3C52     9     0.000000     0.000000     1
  NG2R53   CG2R53    SG311   CG3C52     9   180.000000     5.481040     2
  NG2R53   CG2R61   CG2R61    HGR61     9   180.000000    10.041600     2
  NG2R53   CG2R64   NG2R60   CG2R61     9   180.000000    12.970400     2
  NG2R53    CG301    CG331     HGA3     9     0.000000     0.000000     3
  NG2R53    CG311    CG321    CG2O2     9     0.000000     0.836800     3
  NG2R53    CG311    CG321    CG2O3     9     0.000000     0.836800     3
  NG2R53    CG311    CG321    CG311     9     0.000000     0.836800     3
  NG2R53    CG311    CG321    CG321     9     0.000000     0.836800     3
  NG2R53    CG311    CG321     HGA2     9     0.000000     0.836800     3
  NG2R53    CG321    CG321     HGA2     9     0.000000     0.836800     3
  NG2R53    CG321    CG331     HGA3     9     0.000000     0.815880     3
  NG2R53    CG321    CG2O1      NH1     9     0.000000     2.510400     1
  NG2R53    CG321    CG2O1        N     9     0.000000     2.510400     1
  NG2R53   CG3C31   CG3C31     HGA2     9     0.000000     0.000000     3
  NG2R53   CG3C41   CG3C41     HGA2     9     0.000000     0.000000     3
  NG2R53   CG3C50   CG3C51    CG2O2     9   180.000000     0.167360     3
  NG2R53   CG3C50   CG3C51    CG2O3     9     0.000000     2.133840     2
  NG2R53   CG3C50   CG3C51    CG2O3     9   180.000000     4.769760     3
  NG2R53   CG3C50   CG3C51    CG321     9   180.000000    18.576960     2
  NG2R53   CG3C50   CG3C51    CG321     9   180.000000     8.870080     3
  NG2R53   CG3C50   CG3C51    CG324     9   180.000000     6.359680     2
  NG2R53   CG3C50   CG3C51    CG324     9   180.000000     0.251040     3
  NG2R53   CG3C50   CG3C51   CG3C52     9   180.000000     6.778080     2
  NG2R53   CG3C50   CG3C51   CG3C52     9     0.000000     1.924640     3
  NG2R53   CG3C50   CG3C51     HGA1     9   180.000000     0.000000     3
  NG2R53   CG3C50   CG3C52   CG2RC0     9   180.000000     0.000000     2
  NG2R53   CG3C50   CG3C52   CG2RC0     9   180.000000     0.209200     3
  NG2R53   CG3C50   CG3C52   CG3C52     9   180.000000     6.150480     2
  NG2R53   CG3C50   CG3C52   CG3C52     9     0.000000     1.966480     3
  NG2R53   CG3C50   CG3C52   CG3RC1     9   180.000000     1.924640     2
  NG2R53   CG3C50   CG3C52   CG3RC1     9   180.000000     4.895280     3
  NG2R53   CG3C50   CG3C52   OG3C51     9   180.000000    13.514320     2
  NG2R53   CG3C50   CG3C52   OG3C51     9   180.000000     1.589920     3
  NG2R53   CG3C50   CG3C52    SG311     9     0.000000     7.907760     2
  NG2R53   CG3C50   CG3C52     HGA2     9   180.000000     0.000000     3
  NG2R53   CG3C50   CG3RC1   CG3C52     9   180.000000     0.836800     2
  NG2R53   CG3C50   CG3RC1   CG3C52     9     0.000000     3.974800     3
  NG2R53   CG3C50   CG3RC1     HGA1     9     0.000000     0.000000     3
  NG2R53   CG3C50   NG2R53   CG2R53     9   180.000000     0.753120     2
  NG2R53   CG3C50   NG2R53   CG2R53     9     0.000000     4.351360     3
  NG2R53   CG3C50   NG2R53    CG331     9   180.000000     4.393200     2
  NG2R53   CG3C50   NG2R53    CG331     9     0.000000     8.116960     3
  NG2R53   CG3C50   NG2R53     HGP1     9     0.000000    10.250800     2
  NG2R53   CG3C50   NG2R53     HGP1     9     0.000000     9.999760     3
  NG2R53   CG3C51   CG3C51     HGA1     9   180.000000     0.000000     3
  NG2R53   CG3C51   CG3C52   CG2RC0     9   180.000000     2.886960     2
  NG2R53   CG3C51   CG3C52   CG2RC0     9     0.000000    10.794720     3
  NG2R53   CG3C51   CG3C52   CG3C52     9   180.000000     0.083680     2
  NG2R53   CG3C51   CG3C52   CG3C52     9     0.000000     1.046000     3
  NG2R53   CG3C51   CG3C52   NG3C51     9   180.000000     8.409840     3
  NG2R53   CG3C51   CG3C52     HGA2     9   180.000000     0.000000     3
  NG2R53   CG3C51   NG3C51   CG3C52     9     0.000000     5.271840     2
  NG2R53   CG3C51   NG3C51   CG3C52     9   180.000000     5.941280     3
  NG2R53   CG3C51   NG3C51   NG2R53     9     0.000000     2.803280     3
  NG2R53   CG3C51   NG3C51   NG2R53     9     0.000000     9.455840     4
  NG2R53   CG3C52   CG3C52     HGA2     9   180.000000     0.000000     3
  NG2R53   CG3C52   CG3C53   CG3C52     9     0.000000     8.911920     3
  NG2R53   CG3C52   CG3C53    NG3P3     9     0.000000     0.753120     3
  NG2R53   CG3C52   CG3C53     HGA1     9   180.000000     0.000000     3
  NG2R53   CG3C52   CG3RC1   CG3C41     9     0.000000     1.966480     3
  NG2R53   CG3C52   CG3RC1   CG3C41     9     0.000000     5.062640     4
  NG2R53   CG3C52   CG3RC1     HGA1     9     0.000000     0.000000     3
  NG2R53   CG3C52    SG311   CG3C52     9   180.000000     0.711280     1
  NG2R53   CG3C52    SG311   CG3C52     9     0.000000     0.000000     2
  NG2R53   CG3C52    SG311   CG3C52     9     0.000000     2.259360     3
  NG2R53   CG3C52    SG3O3   CG3C52     9     0.000000     1.799120     1
  NG2R53   CG3C52    SG3O3   CG3C52     9     0.000000     0.543920     3
  NG2R53   CG3C52    SG3O3   CG3C52     9     0.000000     5.397360     4
  NG2R53   CG3C52    SG3O3    OG2P1     9   180.000000     5.773920     1
  NG2R53   CG3C52    SG3O3    OG2P1     9     0.000000     5.815760     2
  NG2R53   CG3C52    SG3O3    OG2P1     9   180.000000     0.334720     3
  NG2R53   CG3C52    SG3O3    OG2P1     9     0.000000     0.041840     6
  NG2R53   CG3RC1   CG3RC1   NG2R53     9     0.000000     0.627600     3
  NG2R53   CG3RC1   CG3RC1    NG3N1     9     0.000000     0.669440     2
  NG2R53   CG3RC1   CG3RC1    NG3N1     9   180.000000     3.430880     3
  NG2R53   CG3RC1   CG3RC1    SG311     9     0.000000     0.711280     2
  NG2R53   CG3RC1   CG3RC1    SG311     9     0.000000     3.263520     3
  NG2R53   CG3RC1   CG3RC1     HGA1     9     0.000000     0.627600     3
  NG2R53   CG3RC1   NG2R53   CG2R53     9   180.000000     9.665040     3
  NG2R53   CG3RC1   NG2R53    CG301     9   180.000000    13.932720     2
  NG2R53   CG3RC1   NG2R53    CG301     9     0.000000     0.753120     3
  NG2R53   CG3RC1   NG2R53    CG331     9     0.000000     0.794960     2
  NG2R53   CG3RC1   NG2R53    CG331     9     0.000000     8.619040     3
  NG2R53   CG3RC1   NG2R53     HGP1     9     0.000000     3.179840     3
  NG2R53   CG3RC1    NG311    CG321     9   180.000000     0.000000     1
  NG2R53   CG3RC1    NG311    CG321     9   180.000000     4.225840     3
  NG2R53   CG3RC1    NG311    CG321     9     0.000000     7.907760     4
  NG2R53   CG3RC1    NG311   HGPAM1     9   180.000000     2.301200     2
  NG2R53   CG3RC1    NG311   HGPAM1     9     0.000000     0.418400     3
  NG2R53   CG3RC1    NG3N1    NG2D1     9   180.000000     0.627600     1
  NG2R53   CG3RC1    NG3N1    NG2D1     9     0.000000     0.167360     2
  NG2R53   CG3RC1    NG3N1    NG2D1     9   180.000000     7.573040     3
  NG2R53   CG3RC1    NG3N1     HGP1     9   180.000000     2.845120     2
  NG2R53   CG3RC1    NG3N1     HGP1     9     0.000000     1.422560     3
  NG2R53   CG3RC1    SG311    CG2N2     9   180.000000     6.485200     1
  NG2R53   CG3RC1    SG311    CG2N2     9     0.000000     0.167360     2
  NG2R53   CG3RC1    SG311    CG2N2     9   180.000000     4.895280     3
   SG311   CG251O   CG25C1   CG2R53     9   180.000000    26.777600     2
   SG311   CG251O   CG25C1   CG2RC0     9   180.000000    26.777600     2
   SG311   CG251O   CG25C1   CG3C52     9   180.000000    21.338400     2
   SG311   CG251O   CG2D1O    NG301     9   180.000000     5.188160     2
   SG311   CG251O   CG2D1O     HGA4     9   180.000000    17.321760     2
   SG311   CG251O   CG2DC1    CG2O3     9   180.000000    24.852960     2
   SG311   CG251O   CG2DC1     HGA4     9   180.000000    20.166880     2
   SG311   CG251O   CG2DC3     HGA5     9   180.000000    22.175200     2
   SG311   CG251O   CG2R53   NG2R53     9   180.000000     5.020800     2
   SG311   CG251O   CG2R53    OG2D1     9   180.000000     3.347200     2
   SG311   CG251O   CG2R61   CG2R61     9   180.000000    18.074880     2
   SG311   CG251O   CG2R61   CG2R61     9   180.000000     3.012480     4
   SG311   CG251O   CG2R61   NG2R61     9   180.000000    15.564480     2
   SG311   CG251O   CG2R61   NG2R61     9     0.000000     3.138000     4
   SG311   CG252O   CG25C2   CG2R53     9   180.000000    26.777600     2
   SG311   CG252O   CG25C2   CG2RC0     9   180.000000    26.777600     2
   SG311   CG252O   CG25C2   CG3C52     9   180.000000    21.338400     2
   SG311   CG252O   CG2D2O    NG301     9   180.000000     5.188160     2
   SG311   CG252O   CG2D2O     HGA4     9   180.000000    17.321760     2
   SG311   CG252O   CG2DC2    CG2O3     9   180.000000    24.852960     2
   SG311   CG252O   CG2DC2     HGA4     9   180.000000    20.166880     2
   SG311   CG252O   CG2DC3     HGA5     9   180.000000    22.175200     2
   SG311   CG252O   CG2R53   NG2R53     9   180.000000     5.020800     2
   SG311   CG252O   CG2R53    OG2D1     9   180.000000     3.347200     2
   SG311   CG252O   CG2R61   CG2R61     9   180.000000    18.074880     2
   SG311   CG252O   CG2R61   CG2R61     9   180.000000     3.012480     4
   SG311   CG252O   CG2R61   NG2R61     9   180.000000    15.564480     2
   SG311   CG252O   CG2R61   NG2R61     9     0.000000     3.138000     4
   SG311   CG2D1O   CG2DC1   CG2R61     9   180.000000    22.760960     2
   SG311   CG2D1O   CG2DC1     HGA4     9   180.000000    25.145840     2
   SG311   CG2D1O    CG2O5    CG321     9   180.000000     8.953760     2
   SG311   CG2D1O    CG2O5    OG2D3     9   180.000000    10.460000     2
   SG311   CG2D1O    CG331     HGA3     9   180.000000     0.074057     3
   SG311   CG2D1O    NG2D1    CG321     9   180.000000     4.878962     1
   SG311   CG2D1O    NG2D1    CG321     9   180.000000    35.476136     2
   SG311   CG2D1O    NG2D1    CG331     9   180.000000     4.878962     1
   SG311   CG2D1O    NG2D1    CG331     9   180.000000    35.476136     2
   SG311   CG2D2O   CG2DC2   CG2R61     9   180.000000    22.760960     2
   SG311   CG2D2O   CG2DC2     HGA4     9   180.000000    25.145840     2
   SG311   CG2D2O    CG2O5    CG321     9   180.000000     8.953760     2
   SG311   CG2D2O    CG2O5    OG2D3     9   180.000000    10.460000     2
   SG311   CG2D2O    CG331     HGA3     9   180.000000     0.074057     3
   SG311   CG2D2O    NG2D1    CG321     9   180.000000     4.878962     1
   SG311   CG2D2O    NG2D1    CG321     9   180.000000    35.476136     2
   SG311   CG2D2O    NG2D1    CG331     9   180.000000     4.878962     1
   SG311   CG2D2O    NG2D1    CG331     9   180.000000    35.476136     2
   SG311    CG2N2    NG2D1   CG2D1O     9   180.000000    12.528570     1
   SG311    CG2N2    NG2D1   CG2D1O     9     0.000000    11.027350     2
   SG311    CG2N2    NG2D1   CG2D1O     9   180.000000     8.339967     3
   SG311    CG2N2    NG2D1   CG2D1O     9     0.000000     3.636733     4
   SG311    CG2N2    NG2D1   CG2D1O     9   180.000000     0.276981     5
   SG311    CG2N2    NG2D1   CG2D1O     9     0.000000     5.915758     6
   SG311    CG2N2    NG2D1   CG2D2O     9   180.000000    12.528570     1
   SG311    CG2N2    NG2D1   CG2D2O     9     0.000000    11.027350     2
   SG311    CG2N2    NG2D1   CG2D2O     9   180.000000     8.339967     3
   SG311    CG2N2    NG2D1   CG2D2O     9     0.000000     3.636733     4
   SG311    CG2N2    NG2D1   CG2D2O     9   180.000000     0.276981     5
   SG311    CG2N2    NG2D1   CG2D2O     9     0.000000     5.915758     6
   SG311    CG2N2    NG2D1    CG2O1     9     0.000000    23.245886     1
   SG311    CG2N2    NG2D1    CG2O1     9   180.000000    21.385679     2
   SG311    CG2N2    NG2D1    CG2O1     9     0.000000    16.728887     3
   SG311    CG2N2    NG2D1    CG2O1     9   180.000000     4.599053     4
   SG311    CG2N2    NG2D1    CG2O1     9   180.000000    10.982582     5
   SG311    CG2N2    NG2D1    CG2O1     9   180.000000     8.352938     6
   SG311    CG2N2    NG2D1    CG321     9   180.000000     9.874240     1
   SG311    CG2N2    NG2D1    CG321     9   180.000000     8.702720     2
   SG311    CG2N2    NG2D1    CG321     9     0.000000     0.251040     3
   SG311    CG2N2    NG2D1    CG321     9   180.000000     4.476880     4
   SG311    CG2N2    NG2D1    CG321     9     0.000000     1.171520     6
   SG311    CG2N2    NG2D1   NG2R61     9   180.000000     1.840960     1
   SG311    CG2N2    NG2D1   NG2R61     9   180.000000     8.368000     2
   SG311    CG2N2    NG2D1   NG2R61     9   180.000000    10.041600     3
   SG311    CG2N2    NG2D1   NG2R61     9   180.000000     4.225840     4
   SG311    CG2N2    NG2D1   NG2R61     9   180.000000    12.384640     5
   SG311    CG2N2    NG2D1   NG2R61     9   180.000000     5.606560     6
   SG311    CG2N2    NG2D1    NG3N1     9   180.000000     0.502080     1
   SG311    CG2N2    NG2D1    NG3N1     9     0.000000     0.209200     2
   SG311    CG2N2    NG2D1    NG3N1     9     0.000000     0.376560     3
   SG311    CG2N2    NG2D1    NG3N1     9   180.000000    19.455600     4
   SG311    CG2N2    NG2D1    NG3N1     9     0.000000     5.899440     6
   SG311    CG2N2    NG2D1     HGP1     9   180.000000     2.719600     1
   SG311    CG2N2    NG2D1     HGP1     9     0.000000     0.000000     2
   SG311    CG2N2    NG2D1     HGP1     9     0.000000     0.878640     3
   SG311    CG2N2    NG2D1     HGP1     9   180.000000     8.033280     4
   SG311    CG2N2    NG2D1     HGP1     9     0.000000     2.175680     6
   SG311    CG2N2    NG2P1    CG324     9     0.000000     0.167360     1
   SG311    CG2N2    NG2P1    CG324     9     0.000000     0.000000     2
   SG311    CG2N2    NG2P1    CG324     9     0.000000     1.297040     3
   SG311    CG2N2    NG2P1    CG324     9   180.000000     4.686080     4
   SG311    CG2N2    NG2P1    CG324     9     0.000000     0.167360     6
   SG311    CG2N2    NG2P1    CG334     9   180.000000     0.167360     1
   SG311    CG2N2    NG2P1    CG334     9   180.000000    15.522640     2
   SG311    CG2N2    NG2P1    CG334     9     0.000000     3.891120     3
   SG311    CG2N2    NG2P1    CG334     9     0.000000     3.849280     4
   SG311    CG2N2    NG2P1    CG334     9   180.000000     0.627600     6
   SG311    CG2N2    NG2P1     HGP2     9     0.000000     0.669440     2
   SG311    CG2N2    NG311   CG2R61     9     0.000000     4.016640     1
   SG311    CG2N2    NG311   CG2R61     9   180.000000    17.279920     2
   SG311    CG2N2    NG311   CG2R61     9     0.000000     3.514560     3
   SG311    CG2N2    NG311   CG2R61     9   180.000000     0.669440     4
   SG311    CG2N2    NG311   CG2R61     9   180.000000     0.753120     6
   SG311    CG2N2    NG311   HGPAM1     9   180.000000     7.531200     1
   SG311    CG2N2    NG311   HGPAM1     9   180.000000     0.543920     2
   SG311    CG2N2    NG311   HGPAM1     9   180.000000     2.635920     3
   SG311    CG2N2    NG311   HGPAM1     9   180.000000     3.807440     4
   SG311    CG2N2    NG311   HGPAM1     9   180.000000     0.125520     6
   SG311    CG2N2    NG321   HGPAM2     9   180.000000     0.083680     1
   SG311    CG2N2    NG321   HGPAM2     9   180.000000    12.008080     2
   SG311    CG2N2    NG321   HGPAM2     9     0.000000     0.502080     3
   SG311    CG2N2    NG321   HGPAM2     9   180.000000     0.836800     4
   SG311    CG2N2    NG321   HGPAM2     9   180.000000     0.836800     6
   SG311    CG2N2    NG3N1    NG2D1     9     0.000000     0.125520     1
   SG311    CG2N2    NG3N1    NG2D1     9   180.000000     3.138000     2
   SG311    CG2N2    NG3N1    NG2D1     9     0.000000     2.217520     3
   SG311    CG2N2    NG3N1    NG2D1     9   180.000000     0.962320     4
   SG311    CG2N2    NG3N1    NG2D1     9   180.000000     0.878640     6
   SG311    CG2N2    NG3N1     HGP1     9     0.000000     1.589920     1
   SG311    CG2N2    NG3N1     HGP1     9     0.000000     0.000000     2
   SG311    CG2N2    NG3N1     HGP1     9     0.000000     0.878640     3
   SG311    CG2N2    NG3N1     HGP1     9   180.000000     0.418400     4
   SG311    CG2N2    NG3N1     HGP1     9     0.000000     0.251040     6
   SG311    CG2O2   CG2R61   CG2R61     9   180.000000     2.058110     2
   SG311    CG2O2   CG2R61   CG2R61     9     0.000000     0.853118     4
   SG311    CG2O2   CG2R62   CG2R62     9   180.000000     2.050160     2
   SG311    CG2O2   CG2R62   CG2R62     9     0.000000     0.836800     4
   SG311    CG2O2    CG321    CG2O3     9   180.000000     6.148388     1
   SG311    CG2O2    CG321    CG2O3     9     0.000000     6.891048     2
   SG311    CG2O2    CG321    CG2O3     9   180.000000     9.068820     3
   SG311    CG2O2    CG321    CG321     9     0.000000     2.685291     1
   SG311    CG2O2    CG321    CG321     9   180.000000     2.217938     2
   SG311    CG2O2    CG321    CG321     9   180.000000    15.562806     3
   SG311    CG2O2    CG321    CG331     9     0.000000     2.685291     1
   SG311    CG2O2    CG321    CG331     9   180.000000     2.217938     2
   SG311    CG2O2    CG321    CG331     9   180.000000    15.562806     3
   SG311    CG2O2    CG321     HGA2     9     0.000000     7.152548     3
   SG311    CG2O2    CG331     HGA3     9   180.000000     0.807930     2
   SG311    CG2O6    NG2S0    CG321     9   180.000000     7.154640     1
   SG311    CG2O6    NG2S0    CG321     9     0.000000     0.041840     2
   SG311    CG2O6    NG2S0    CG331     9     0.000000     9.455840     1
   SG311    CG2O6    NG2S0    CG331     9     0.000000     0.083680     2
   SG311    CG2O6    NG2S1    CG2O1     9     0.000000     0.000000     2
   SG311    CG2O6    NG2S1     HGP1     9   180.000000    13.849040     2
   SG311    CG2O6    NG2S2     HGP1     9   180.000000     4.969755     2
   SG311    CG2O6    SG311    CG331     9     0.000000     0.418400     1
   SG311    CG2O6    SG311    CG331     9   180.000000     8.911920     2
   SG311   CG2R51   CG3C52    CG2O5     9     0.000000     0.125520     2
   SG311   CG2R51   CG3C52    CG2O5     9   180.000000     1.213360     3
   SG311   CG2R51   CG3C52     HGA2     9   180.000000     0.000000     3
   SG311   CG2R53   CG3C51    CG2O2     9     0.000000     3.263520     3
   SG311   CG2R53   CG3C51   CG2R53     9     0.000000     5.690240     2
   SG311   CG2R53   CG3C51   CG2R53     9   180.000000     0.669440     3
   SG311   CG2R53   CG3C51     HGA1     9     0.000000     0.000000     3
   SG311   CG2R53   CG3C52   CG3C51     9     0.000000     0.292880     2
   SG311   CG2R53   CG3C52   CG3C51     9   180.000000     7.112800     3
   SG311   CG2R53   CG3C52     HGA2     9     0.000000     0.000000     3
   SG311   CG2R53   NG2R50   NG2R50     9   180.000000    69.914640     2
   SG311   CG2R53   NG2R51   CG2R53     9     0.000000     0.000000     2
   SG311   CG2R53   NG2R51   CG3C52     9   180.000000    27.530720     2
   SG311   CG2R53   NG2R53   CG2R53     9   180.000000     6.276000     2
   SG311   CG2R53   NG2R53    CG311     9   180.000000     6.276000     2
   SG311   CG2R53   NG2R53    CG321     9   180.000000     6.276000     2
   SG311   CG2R53   NG2R53    CG331     9   180.000000     6.276000     2
   SG311   CG2R53   NG2R53   CG3C51     9   180.000000    15.857360     2
   SG311   CG2R53   NG2R53     HGP1     9   180.000000     7.112800     2
   SG311   CG2R57   NG2R50   CG2R53     9   180.000000    22.049680     2
   SG311   CG2R57   NG2R57   CG3C52     9   180.000000    12.384640     2
   SG311   CG2R57   NG2R57   CG3C52     9   180.000000     2.552240     4
   SG311   CG2R57   NG2R57   CG3C52     9     0.000000     1.799120     6
   SG311   CG2R61   CG2R61    SG311     9     0.000000     0.000000     2
   SG311   CG2R61   CG2R61    HGR61     9   180.000000    10.041600     2
   SG311   CG2R61   CG2R64   NG2R62     9   180.000000     8.702720     2
   SG311   CG2R61   CG2R64    NG311     9   180.000000     9.246640     2
   SG311   CG2R61   CG2R66   CG2R61     9   180.000000    18.828000     2
   SG311   CG2R61   CG2R66     FGR1     9   180.000000     8.326160     2
   SG311   CG2R61   CG2R67   CG2R67     9   180.000000    41.714480     2
   SG311   CG2R61   CG2R67   CG2RC0     9   180.000000    20.627120     2
   SG311   CG2R61   NG2R60   CG2R61     9   180.000000    25.145840     2
   SG311   CG2R61   NG2R62   CG2R64     9   180.000000    15.020560     2
   SG311   CG2R62   CG2R62    HGR63     9   180.000000     5.355520     2
   SG311   CG2R62   NG2R61   CG2R62     9   180.000000    18.995360     2
   SG311   CG2R62   NG2R61   OG3R60     9   180.000000    19.748480     2
   SG311   CG2R63   NG2R61   CG2R63     9     0.000000     1.924640     2
   SG311   CG2R63   NG2R61    CG331     9     0.000000     0.000000     2
   SG311   CG2R64    NG2D1     HGP1     9     0.000000     3.263520     1
   SG311   CG2R64    NG2D1     HGP1     9   180.000000    11.924400     2
   SG311   CG2R64   NG2R61   CG2R62     9   180.000000    25.104000     2
   SG311   CG2R64   NG2R61   CG2R63     9   180.000000    16.736000     2
   SG311   CG2R64   NG2R61   CG2R64     9   180.000000    16.736000     2
   SG311   CG2R64   NG2R61    CG321     9   180.000000    25.104000     2
   SG311   CG2R64   NG2R61    CG331     9   180.000000    25.104000     2
   SG311   CG2R64   NG2R61     HGP1     9   180.000000     0.000000     2
   SG311   CG2R64   NG2R61     CN7B     9   180.000000    25.104000     2
   SG311   CG2R64   NG2R62   CG2R61     9   180.000000    42.676800     2
   SG311   CG2R64   NG2R62   CG2R62     9   180.000000     8.368000     2
   SG311   CG2R64   NG2R62   CG2R63     9   180.000000    41.840000     2
   SG311   CG2R64   NG2R62   CG2R64     9   180.000000    41.840000     2
   SG311   CG2R64   NG2R62   CG2RC0     9   180.000000    41.840000     2
   SG311   CG2R64   NG2RC0   CG2RC0     9   180.000000     3.347200     2
   SG311   CG2R64   NG2RC0   NG2R50     9   180.000000    11.213120     2
   SG311   CG2R71   CG2R71    HGR71     9   180.000000    17.698320     2
   SG311   CG2RC0   NG2R61   CG2R64     9     0.000000     0.000000     2
   SG311   CG2RC0   NG2R61   CG3C52     9   180.000000    11.547840     2
   SG311   CG2RC0   NG2R62   CG2R61     9   180.000000    30.250320     2
   SG311    CG301    CG321    CG311     9     0.000000     0.836800     3
   SG311    CG301    CG321    CG321     9     0.000000     0.836800     3
   SG311    CG301    CG321    NG301     9     0.000000     0.000000     1
   SG311    CG301    CG321    NG301     9     0.000000     0.125520     2
   SG311    CG301    CG321    NG301     9     0.000000     3.012480     3
   SG311    CG301    CG321    NG311     9   180.000000     0.753120     1
   SG311    CG301    CG321    NG311     9   180.000000     0.962320     2
   SG311    CG301    CG321    NG311     9   180.000000     0.711280     3
   SG311    CG301    CG321    SG311     9   180.000000     0.334720     3
   SG311    CG301    CG321     HGA2     9     0.000000     0.794960     3
   SG311    CG301    CG324    NG3P1     9   180.000000     9.832400     3
   SG311    CG301    CG324     HGA2     9     0.000000     0.794960     3
   SG311    CG301    CG331     HGA3     9     0.000000     0.793286     3
   SG311    CG301    OG303      PG1     9   180.000000     4.263078     1
   SG311    CG301    OG303      PG1     9     0.000000     1.404987     2
   SG311    CG301    OG303      PG1     9     0.000000     1.292438     3
   SG311    CG301    OG311     HGP1     9     0.000000     5.146320     1
   SG311    CG301    OG311     HGP1     9     0.000000     3.849280     3
   SG311    CG301      CT1        C     9     0.000000     0.227191     1
   SG311    CG301      CT1        C     9   180.000000     3.253897     2
   SG311    CG301      CT1        C     9   180.000000     4.809926     3
   SG311    CG301      CT1      HB1     9   180.000000     0.257734     3
   SG311    CG301      CT1      NH1     9     0.000000     9.338270     1
   SG311    CG301      CT1      NH1     9     0.000000     1.473605     2
   SG311    CG301      CT1      NH1     9     0.000000     8.497704     3
   SG311    CG311    CG311     HGA1     9     0.000000     0.041840     3
   SG311    CG311    CG314   CG2R61     9     0.000000     1.506240     1
   SG311    CG311    CG314   CG2R61     9   180.000000     1.213360     2
   SG311    CG311    CG314   CG2R61     9   180.000000     7.363840     3
   SG311    CG311    CG314    NG3P2     9     0.000000     0.836800     3
   SG311    CG311    CG314     HGA1     9     0.000000     0.836800     3
   SG311    CG311    CG321    CG2O3     9     0.000000     0.836800     3
   SG311    CG311    CG321    CG2O5     9   180.000000     3.472720     3
   SG311    CG311    CG321   CG2R51     9   180.000000     1.464400     1
   SG311    CG311    CG321   CG2R51     9   180.000000     1.799120     2
   SG311    CG311    CG321   CG2R51     9     0.000000     1.087840     3
   SG311    CG311    CG321    CG314     9     0.000000     0.815880     3
   SG311    CG311    CG321    CG321     9     0.000000     0.815880     3
   SG311    CG311    CG321    CG331     9     0.000000     0.836800     3
   SG311    CG311    CG321    NG2S1     9     0.000000     0.836800     3
   SG311    CG311    CG321    NG321     9     0.000000     2.510400     1
   SG311    CG311    CG321    NG321     9   180.000000     0.836800     2
   SG311    CG311    CG321    NG321     9     0.000000     1.255200     3
   SG311    CG311    CG321    NG3N1     9     0.000000     2.510400     1
   SG311    CG311    CG321    NG3N1     9   180.000000     0.836800     2
   SG311    CG311    CG321    NG3N1     9     0.000000     1.255200     3
   SG311    CG311    CG321   OG3C61     9     0.000000     2.677760     1
   SG311    CG311    CG321   OG3C61     9   180.000000     0.292880     3
   SG311    CG311    CG321     HGA2     9     0.000000     0.041840     3
   SG311    CG311    CG331     HGA3     9     0.000000     0.669440     3
   SG311    CG311    NG3N1    NG3N1     9     0.000000     0.083680     1
   SG311    CG311    NG3N1    NG3N1     9     0.000000     1.129680     2
   SG311    CG311    NG3N1    NG3N1     9     0.000000    15.271600     3
   SG311    CG311    NG3N1     HGP1     9     0.000000     0.334720     2
   SG311    CG311    NG3N1     HGP1     9     0.000000     0.627600     3
   SG311    CG311    OG311     HGP1     9     0.000000     5.151759     1
   SG311    CG311    OG311     HGP1     9     0.000000     3.828360     3
   SG311    CG311   OG3R60    CG2O2     9     0.000000     1.589920     3
   SG311    CG311    SG3O3    CG321     9   180.000000     1.799120     1
   SG311    CG311    SG3O3    CG321     9     0.000000     1.757280     3
   SG311    CG311    SG3O3    OG2P1     9     0.000000     2.133840     1
   SG311    CG311    SG3O3    OG2P1     9     0.000000     0.000000     2
   SG311    CG311    SG3O3    OG2P1     9     0.000000     6.192320     3
   SG311    CG311    SG3O3    OG2P1     9     0.000000     0.292880     6
   SG311    CG311      CT1        C     9     0.000000     0.836800     3
   SG311    CG314    NG311    CG321     9     0.000000     2.658514     1
   SG311    CG314    NG311    CG321     9     0.000000     8.773848     2
   SG311    CG314    NG311    CG321     9     0.000000     7.197317     3
   SG311    CG314    NG311    CG331     9     0.000000     2.658514     1
   SG311    CG314    NG311    CG331     9     0.000000     8.773848     2
   SG311    CG314    NG311    CG331     9     0.000000     7.197317     3
   SG311    CG314    NG311   HGPAM1     9   180.000000     4.565162     2
   SG311    CG314    NG311   HGPAM1     9   180.000000     2.656840     3
   SG311    CG314    NG3P3     HGP2     9     0.000000     0.108366     3
   SG311    CG321    CG321    SG311     9     0.000000     0.418400     3
   SG311    CG321    CG321     HGA2     9     0.000000     0.041840     3
   SG311    CG321    CG324    NG3P1     9     0.000000     3.347200     3
   SG311    CG321    CG324    NG3P2     9     0.000000     3.347200     3
   SG311    CG321    CG324    NG3P3     9     0.000000     3.347200     3
   SG311    CG321    CG324     HGA2     9     0.000000     0.815880     3
   SG311    CG321    CG331     HGA3     9     0.000000     0.669440     3
   SG311    CG321   CG3C51   CG3C51     9   180.000000    10.460000     1
   SG311    CG321   CG3C51   CG3C51     9     0.000000     1.673600     2
   SG311    CG321   CG3C51   CG3C51     9   180.000000     3.347200     3
   SG311    CG321   CG3C51   CG3C51     9   180.000000     0.836800     4
   SG311    CG321   CG3C51   OG3C51     9   180.000000    14.225600     1
   SG311    CG321   CG3C51     HGA1     9     0.000000     0.815880     3
   SG311    CG321   CG3RC1    CG331     9   180.000000     3.598240     1
   SG311    CG321   CG3RC1    CG331     9   180.000000     0.794960     2
   SG311    CG321   CG3RC1    CG331     9     0.000000     1.757280     3
   SG311    CG321   CG3RC1    CG331     9   180.000000     2.092000     4
   SG311    CG321   CG3RC1    NG2S0     9   180.000000     2.845120     3
   SG311    CG321   CG3RC1    SG311     9     0.000000     5.564720     3
   SG311    CG321   CG3RC1    SG311     9     0.000000     0.836800     4
   SG311    CG321    NG301    CG321     9     0.000000     1.966480     1
   SG311    CG321    NG301    CG321     9     0.000000    28.869600     2
   SG311    CG321    NG301    CG321     9   180.000000     5.606560     3
   SG311    CG321    NG301    CG331     9     0.000000     0.251040     1
   SG311    CG321    NG301    CG331     9     0.000000     5.815760     2
   SG311    CG321    NG301    CG331     9   180.000000     9.037440     3
   SG311    CG321    OG311     HGP1     9     0.000000     3.229211     1
   SG311    CG321    OG311     HGP1     9     0.000000     4.270190     2
   SG311    CG321    OG311     HGP1     9     0.000000     2.573578     3
   SG311    CG321      PG1    OG2P1     9   180.000000     1.016294     2
   SG311    CG321      PG1    OG311     9   180.000000     4.995278     1
   SG311    CG321      PG1    OG311     9   180.000000     1.034285     2
   SG311    CG321      PG1    OG311     9   180.000000     2.130074     3
   SG311    CG321      PG2    OG2P1     9   180.000000     0.168197     3
   SG311    CG321    SG311    CG321     9     0.000000     5.439200     3
   SG311    CG321      CT1        C     9     0.000000     0.836800     3
   SG311    CG331     HGA3   CG2R64     9     0.000000     1.380720     3
   SG311   CG3C41   CG3C41     HGA2     9   180.000000     0.000000     3
   SG311   CG3C50   CG3C52   CG3C51     9   180.000000     1.255200     3
   SG311   CG3C50   CG3C52   NG2R51     9     0.000000     1.004160     2
   SG311   CG3C50   CG3C52   NG3C51     9   180.000000     3.263520     3
   SG311   CG3C50   CG3C52   NG3C51     9   180.000000     0.292880     6
   SG311   CG3C50   CG3C52     HGA2     9     0.000000     3.974800     3
   SG311   CG3C50    SG311   CG3C52     9   180.000000     0.209200     2
   SG311   CG3C50    SG311   CG3C52     9     0.000000     1.799120     3
   SG311   CG3C50    SG311   CG3C52     9   180.000000     3.389040     6
   SG311   CG3C51   CG3C51     HGA1     9   180.000000     8.796442     3
   SG311   CG3C51   CG3C52   CG2R53     9     0.000000     0.902070     3
   SG311   CG3C51   CG3C52   CG2RC0     9     0.000000     0.920480     3
   SG311   CG3C51   CG3C52   CG3C51     9   180.000000     1.240556     3
   SG311   CG3C51   CG3C52   CG3C52     9   180.000000     1.255200     3
   SG311   CG3C51   CG3C52     HGA2     9     0.000000     3.986934     3
   SG311   CG3C51   NG3C51   OG3C51     9     0.000000     8.521134     3
   SG311   CG3C51   NG3C51     HGP1     9   180.000000    20.034666     1
   SG311   CG3C51   NG3C51     HGP1     9   180.000000    10.144526     3
   SG311   CG3C51    OG311     HGP1     9     0.000000     4.058480     1
   SG311   CG3C51    OG311     HGP1     9   180.000000     1.171520     2
   SG311   CG3C51    OG311     HGP1     9     0.000000     0.962320     3
   SG311   CG3C51   OG3C51   CG3C51     9     0.000000     1.632597     3
   SG311   CG3C52   CG3C52    SG311     9   180.000000    19.371920     2
   SG311   CG3C52   CG3C52    SG311     9   180.000000     4.142160     4
   SG311   CG3C52   CG3C52     HGA2     9     0.000000     3.974800     3
   SG311   CG3C52   CG3C54    NG3P2     9     0.000000     0.000000     2
   SG311   CG3C52   CG3C54    NG3P2     9   180.000000     8.284320     3
   SG311   CG3C52   CG3C54     HGA2     9     0.000000     3.974800     3
   SG311   CG3C52   CG3RC1    CG331     9   180.000000     3.932960     3
   SG311   CG3C52   CG3RC1    CG331     9   180.000000     0.334720     4
   SG311   CG3C52   CG3RC1   CG3C52     9     0.000000     0.000000     2
   SG311   CG3C52   CG3RC1   CG3C52     9     0.000000     5.606560     3
   SG311   CG3C52   CG3RC1   CG3RC1     9   180.000000     6.610720     3
   SG311   CG3C52   CG3RC1   CG3RC1     9     0.000000     2.677760     6
   SG311   CG3C52   CG3RC1    NG2S0     9     0.000000    10.711040     2
   SG311   CG3C52   CG3RC1     HGA1     9     0.000000     0.000000     3
   SG311   CG3C52   NG2R53   CG2R53     9   180.000000    15.020560     2
   SG311   CG3C52   NG2R53   CG2R53     9     0.000000     0.334720     3
   SG311   CG3C52   NG2R53    CG331     9   180.000000     8.326160     2
   SG311   CG3C52   NG2R53    CG331     9     0.000000     2.175680     3
   SG311   CG3C52    NG2S0    CG2O1     9   180.000000     0.047279     3
   SG311   CG3C52    NG2S0   CG3C51     9     0.000000     0.132633     3
   SG311   CG3C52    NG2S0        C     9   180.000000     0.047279     3
   SG311   CG3C52   NG3C51    CG331     9   180.000000     4.142160     3
   SG311   CG3C52   NG3C51   CG3C52     9     0.000000     3.179840     3
   SG311   CG3C52   NG3C51   CG3C52     9     0.000000    12.175440     4
   SG311   CG3C53    NG3P2   CG3C54     9     0.000000     1.338880     3
   SG311   CG3C53    NG3P2   CG3C54     9     0.000000     8.451680     4
   SG311   CG3C53    NG3P2     HGP2     9   180.000000     4.058480     3
   SG311   CG3RC1   CG3RC1    SG311     9   180.000000     1.380720     3
   SG311   CG3RC1   CG3RC1     HGA1     9     0.000000     0.000000     3
   SG311   CG3RC1   NG2R43   CG2D1O     9     0.000000     0.418400     3
   SG311   CG3RC1   NG2R43   CG2D2O     9     0.000000     0.418400     3
   SG311   CG3RC1   NG2R43   CG2R53     9   180.000000     3.389040     3
   SG311   CG3RC1   NG2R53   CG2R53     9   180.000000     3.305360     2
   SG311   CG3RC1   NG2R53   CG2R53     9     0.000000     0.711280     3
   SG311   CG3RC1   NG2R53    CG331     9   180.000000     1.506240     2
   SG311   CG3RC1   NG2R53    CG331     9   180.000000     2.677760     3
   SG311   CG3RC1    NG2S0    CG2O1     9     0.000000     0.000000     3
   SG311   CG3RC1    NG2S0    CG2O1     9   180.000000     2.301200     6
   SG311   CG3RC1    NG2S0   CG3C51     9     0.000000     0.041840     2
   SG311   CG3RC1    NG2S0   CG3C51     9     0.000000     1.297040     3
  NG2R51   CG251O    CG2D2     HGA5     9   180.000000    11.966240     2
  NG2R51   CG251O   SG2R50   CG2RC0     9     0.000000     0.125520     2
  NG2R51   CG252O    CG2D2     HGA5     9   180.000000    11.966240     2
  NG2R51   CG252O   SG2R50   CG2RC0     9     0.000000     0.125520     2
  NG2R51    CG2O6    NG2S1    CG331     9   180.000000    33.472000     2
  NG2R51    CG2O6    NG2S1    CG331     9     0.000000     3.974800     4
  NG2R51    CG2O6    NG2S1     HGP1     9   180.000000    16.736000     2
  NG2R51    CG2O6    NG2S2     HGP1     9   180.000000    11.547840     2
  NG2R51   CG2R51   CG2R51   NG2R51     9     0.000000     0.000000     2
  NG2R51   CG2R51   CG2R51    NG311     9   180.000000     7.447520     2
  NG2R51   CG2R51   CG2R51   OG2R50     9     0.000000     0.000000     2
  NG2R51   CG2R51   CG2R51    OG311     9   180.000000    23.053840     2
  NG2R51   CG2R51   CG2R51   SG2R50     9   180.000000    15.596697     2
  NG2R51   CG2R51   CG2R51    SG3O2     9   180.000000     7.949600     2
  NG2R51   CG2R51   CG2R51    HGR51     9   180.000000    14.644000     2
  NG2R51   CG2R51   CG2R51    HGR52     9   180.000000    12.552000     2
  NG2R51   CG2R51   CG2R51      CT2     9   180.000000    12.552000     2
  NG2R51   CG2R51   CG2R57   CG2R51     9   180.000000    16.736000     2
  NG2R51   CG2R51   CG2R57   CG2R52     9   180.000000    16.736000     2
  NG2R51   CG2R51   CG2R57   CG2R57     9   180.000000     8.786400     2
  NG2R51   CG2R51   CG2R57   CG2RC0     9   180.000000    16.736000     2
  NG2R51   CG2R51   CG2R57   CG3C51     9     0.000000     1.464400     2
  NG2R51   CG2R51   CG2R57   CG3C53     9   180.000000     8.409840     2
  NG2R51   CG2R51   CG2R57   NG2R57     9   180.000000     7.949600     2
  NG2R51   CG2R51   CG2R61   CG2R61     9   180.000000     7.070960     2
  NG2R51   CG2R51   CG2R61   CG2R61     9     0.000000     7.614880     4
  NG2R51   CG2R51   CG2R61   NG2R62     9   180.000000    16.401280     2
  NG2R51   CG2R51   CG2R61   NG2R62     9   180.000000     9.665040     4
  NG2R51   CG2R51   CG2RC0   CG2R61     9   180.000000     6.276000     2
  NG2R51   CG2R51   CG2RC0   CG2RC0     9   180.000000    37.656000     2
  NG2R51   CG2R51   CG2RC0   NG2R61     9   180.000000    13.807200     2
  NG2R51   CG2R51   CG2RC7   CG2R53     9   180.000000    28.744080     2
  NG2R51   CG2R51   CG2RC7   CG2R71     9     0.000000     0.000000     2
  NG2R51   CG2R51    CG301    CG321     9     0.000000    10.250800     2
  NG2R51   CG2R51    CG301    CG321     9   180.000000     5.522880     3
  NG2R51   CG2R51    CG301    CG324     9   180.000000     7.656720     2
  NG2R51   CG2R51    CG301    CG324     9     0.000000     2.928800     3
  NG2R51   CG2R51    CG301    NG311     9     0.000000     0.920480     2
  NG2R51   CG2R51    CG301    NG311     9   180.000000     1.380720     3
  NG2R51   CG2R51    CG311    CG2O1     9     0.000000     1.589920     3
  NG2R51   CG2R51    CG311   CG2R51     9   180.000000     1.799120     3
  NG2R51   CG2R51    CG311   CG2R51     9     0.000000     3.096160     6
  NG2R51   CG2R51    CG311   CG2R61     9     0.000000     0.920480     3
  NG2R51   CG2R51    CG311    CG331     9     0.000000     0.794960     3
  NG2R51   CG2R51    CG311    NG2S0     9     0.000000     4.435040     1
  NG2R51   CG2R51    CG311    NG2S0     9     0.000000     1.213360     2
  NG2R51   CG2R51    CG311    NG2S0     9     0.000000     2.510400     3
  NG2R51   CG2R51    CG311    NG2S0     9   180.000000     2.468560     6
  NG2R51   CG2R51    CG311    NG311     9     0.000000     0.794960     3
  NG2R51   CG2R51    CG311     HGA1     9     0.000000     0.794960     3
  NG2R51   CG2R51    CG314    CG331     9     0.000000     0.794960     3
  NG2R51   CG2R51    CG314    NG3P2     9   180.000000     9.539520     2
  NG2R51   CG2R51    CG314    NG3P2     9   180.000000     0.794960     3
  NG2R51   CG2R51    CG314     HGA1     9     0.000000     0.794960     3
  NG2R51   CG2R51    CG321    CG311     9     0.000000     0.794960     3
  NG2R51   CG2R51    CG321    CG314     9     0.000000     0.794960     3
  NG2R51   CG2R51    CG321    CG321     9     0.000000     0.794960     3
  NG2R51   CG2R51    CG321    CG324     9     0.000000     0.794960     3
  NG2R51   CG2R51    CG321    CG331     9     0.000000     0.794960     3
  NG2R51   CG2R51    CG321    NG301     9     0.000000     0.794960     3
  NG2R51   CG2R51    CG321    OG311     9   180.000000     1.715440     3
  NG2R51   CG2R51    CG321    OG311     9     0.000000     0.418400     4
  NG2R51   CG2R51    CG321     HGA2     9     0.000000     0.794960     3
  NG2R51   CG2R51    CG324    NG3P2     9     0.000000     2.635920     3
  NG2R51   CG2R51    CG324    NG3P2     9   180.000000     6.945440     4
  NG2R51   CG2R51    CG324     HGA2     9     0.000000     0.794960     3
  NG2R51   CG2R51    CG331     HGA3     9     0.000000     0.794960     3
  NG2R51   CG2R51   CG3C41   CG3C41     9     0.000000     1.338880     3
  NG2R51   CG2R51   CG3C41    NG3P1     9     0.000000     0.209200     2
  NG2R51   CG2R51   CG3C41    NG3P1     9   180.000000     1.255200     3
  NG2R51   CG2R51   CG3C50    CG331     9   180.000000     2.217520     3
  NG2R51   CG2R51   CG3C50   OG3C51     9   180.000000     1.548080     2
  NG2R51   CG2R51   CG3C51    CG331     9     0.000000     4.476880     3
  NG2R51   CG2R51   CG3C51   CG3C51     9     0.000000     0.251040     2
  NG2R51   CG2R51   CG3C51   CG3C51     9   180.000000     0.669440     3
  NG2R51   CG2R51   CG3C51   CG3C52     9     0.000000     0.041840     2
  NG2R51   CG2R51   CG3C51   CG3C52     9     0.000000     1.966480     3
  NG2R51   CG2R51   CG3C51     HGA1     9     0.000000     0.000000     3
  NG2R51   CG2R51   CG3C52   CG3C52     9   180.000000    11.087600     2
  NG2R51   CG2R51   CG3C52   CG3C52     9     0.000000     1.213360     3
  NG2R51   CG2R51   CG3C52   NG2R53     9   180.000000     3.723760     2
  NG2R51   CG2R51   CG3C52   NG2R53     9     0.000000     0.669440     3
  NG2R51   CG2R51   CG3C52   OG3C51     9   180.000000    12.677520     2
  NG2R51   CG2R51   CG3C52    SG311     9     0.000000     0.000000     2
  NG2R51   CG2R51   CG3C52    SG311     9     0.000000     8.075120     3
  NG2R51   CG2R51   CG3C52     HGA2     9     0.000000     0.000000     3
  NG2R51   CG2R51   NG2R50   CG2R53     9   180.000000     4.518720     2
  NG2R51   CG2R51   NG2R61   CG2R61     9   180.000000     5.648400     1
  NG2R51   CG2R51   NG2R61   CG2R61     9   180.000000     5.899440     2
  NG2R51   CG2R51   NG2R61   CG2R61     9   180.000000     5.815760     3
  NG2R51   CG2R51   NG2R61   CG2R62     9   180.000000     0.878640     1
  NG2R51   CG2R51   NG2R61   CG2R62     9   180.000000     1.966480     2
  NG2R51   CG2R51   NG2R61   CG2R62     9     0.000000     0.251040     3
  NG2R51   CG2R51   NG2R61   CG2R62     9     0.000000     3.221680     4
  NG2R51   CG2R51   NG2R61   CG2R64     9     0.000000     0.334720     1
  NG2R51   CG2R51   NG2R61   CG2R64     9   180.000000     5.355520     2
  NG2R51   CG2R51   NG2R61   CG2R64     9     0.000000     5.857600     3
  NG2R51   CG2R51   OG2R50   CG2R51     9   180.000000    62.634480     2
  NG2R51   CG2R51    OG311     HGP1     9   180.000000     0.005021     2
  NG2R51   CG2R51   OG3C51   CG3C52     9     0.000000     0.000000     2
  NG2R51   CG2R51   SG2R50   CG2R51     9   180.000000    14.392960     2
  NG2R51   CG2R51    SG3O2    NG321     9   180.000000    14.141920     1
  NG2R51   CG2R51    SG3O2    NG321     9     0.000000     0.460240     2
  NG2R51   CG2R51    SG3O2    NG321     9   180.000000     6.108640     3
  NG2R51   CG2R51    SG3O2    OG2P1     9     0.000000     3.514560     1
  NG2R51   CG2R51    SG3O2    OG2P1     9   180.000000     2.301200     2
  NG2R51   CG2R51    SG3O2    OG2P1     9     0.000000     5.355520     3
  NG2R51   CG2R53   CG2R61   CG2R61     9   180.000000     2.468560     2
  NG2R51   CG2R53   CG2R61   CG2R61     9   180.000000     0.167360     4
  NG2R51   CG2R53   CG2RC0   CG2R61     9   180.000000    14.644000     2
  NG2R51   CG2R53   CG2RC0   CG2R62     9     0.000000     1.757280     2
  NG2R51   CG2R53   CG2RC0   CG2RC0     9     0.000000     0.041840     2
  NG2R51   CG2R53    CG301    CG331     9     0.000000     3.681920     1
  NG2R51   CG2R53    CG301    CG331     9     0.000000     0.209200     2
  NG2R51   CG2R53    CG301    CG331     9   180.000000     0.753120     3
  NG2R51   CG2R53    CG301    CG331     9   180.000000     0.083680     6
  NG2R51   CG2R53    CG301    NG2S1     9     0.000000     0.376560     1
  NG2R51   CG2R53    CG301    NG2S1     9     0.000000     0.041840     2
  NG2R51   CG2R53    CG301    NG2S1     9   180.000000     1.087840     3
  NG2R51   CG2R53    CG301    NG2S1     9   180.000000     0.418400     6
  NG2R51   CG2R53    CG311    CG2O2     9     0.000000     1.004160     1
  NG2R51   CG2R53    CG311    CG2O2     9   180.000000     2.510400     2
  NG2R51   CG2R53    CG311    CG2O2     9     0.000000     0.418400     3
  NG2R51   CG2R53    CG311    CG2O2     9   180.000000     1.004160     6
  NG2R51   CG2R53    CG311    CG2O3     9   180.000000     0.000000     1
  NG2R51   CG2R53    CG311    CG2O3     9   180.000000     0.000000     2
  NG2R51   CG2R53    CG311    CG2O3     9     0.000000     3.472720     3
  NG2R51   CG2R53    CG311    CG2O3     9   180.000000     1.046000     6
  NG2R51   CG2R53    CG311    CG311     9     0.000000     3.695727     1
  NG2R51   CG2R53    CG311    CG311     9     0.000000     0.211710     2
  NG2R51   CG2R53    CG311    CG311     9   180.000000     0.749354     3
  NG2R51   CG2R53    CG311    CG311     9   180.000000     0.066107     6
  NG2R51   CG2R53    CG311    CG321     9     0.000000     3.695727     1
  NG2R51   CG2R53    CG311    CG321     9     0.000000     0.211710     2
  NG2R51   CG2R53    CG311    CG321     9   180.000000     0.749354     3
  NG2R51   CG2R53    CG311    CG321     9   180.000000     0.066107     6
  NG2R51   CG2R53    CG311    CG324     9     0.000000    17.823840     1
  NG2R51   CG2R53    CG311    CG324     9     0.000000     0.167360     2
  NG2R51   CG2R53    CG311    CG324     9   180.000000     0.753120     3
  NG2R51   CG2R53    CG311    CG324     9   180.000000     1.171520     6
  NG2R51   CG2R53    CG311    CG331     9     0.000000     3.695727     1
  NG2R51   CG2R53    CG311    CG331     9     0.000000     0.211710     2
  NG2R51   CG2R53    CG311    CG331     9   180.000000     0.749354     3
  NG2R51   CG2R53    CG311    CG331     9   180.000000     0.066107     6
  NG2R51   CG2R53    CG311    NG2S1     9     0.000000     0.372376     1
  NG2R51   CG2R53    CG311    NG2S1     9     0.000000     0.059413     2
  NG2R51   CG2R53    CG311    NG2S1     9   180.000000     1.102902     3
  NG2R51   CG2R53    CG311    NG2S1     9   180.000000     0.423421     6
  NG2R51   CG2R53    CG311     HGA1     9     0.000000     0.794960     3
  NG2R51   CG2R53    CG321    CG321     9     0.000000     3.695727     1
  NG2R51   CG2R53    CG321    CG321     9     0.000000     0.211710     2
  NG2R51   CG2R53    CG321    CG321     9   180.000000     0.749354     3
  NG2R51   CG2R53    CG321    CG321     9   180.000000     0.066107     6
  NG2R51   CG2R53    CG321    CG331     9     0.000000     3.695727     1
  NG2R51   CG2R53    CG321    CG331     9     0.000000     0.211710     2
  NG2R51   CG2R53    CG321    CG331     9   180.000000     0.749354     3
  NG2R51   CG2R53    CG321    CG331     9   180.000000     0.066107     6
  NG2R51   CG2R53    CG321    NG2S1     9     0.000000     0.372376     1
  NG2R51   CG2R53    CG321    NG2S1     9     0.000000     0.059413     2
  NG2R51   CG2R53    CG321    NG2S1     9   180.000000     1.102902     3
  NG2R51   CG2R53    CG321    NG2S1     9   180.000000     0.423421     6
  NG2R51   CG2R53    CG321    NG301     9     0.000000     0.000000     2
  NG2R51   CG2R53    CG321    NG301     9   180.000000     6.903600     3
  NG2R51   CG2R53    CG321    NG311     9     0.000000     0.083680     2
  NG2R51   CG2R53    CG321    NG311     9   180.000000     0.794960     3
  NG2R51   CG2R53    CG321    NG321     9     0.000000     3.514560     3
  NG2R51   CG2R53    CG321   OG3C61     9   180.000000     6.150480     1
  NG2R51   CG2R53    CG321   OG3C61     9     0.000000     1.255200     2
  NG2R51   CG2R53    CG321   OG3C61     9   180.000000     0.209200     3
  NG2R51   CG2R53    CG321   OG3C61     9   180.000000     1.087840     6
  NG2R51   CG2R53    CG321     HGA2     9     0.000000     0.794960     3
  NG2R51   CG2R53    CG324    NG3P3     9   180.000000     0.711280     1
  NG2R51   CG2R53    CG324    NG3P3     9   180.000000     1.129680     2
  NG2R51   CG2R53    CG324    NG3P3     9     0.000000     3.138000     3
  NG2R51   CG2R53    CG324    NG3P3     9   180.000000     0.711280     6
  NG2R51   CG2R53    CG324     HGA2     9     0.000000     0.794960     3
  NG2R51   CG2R53    CG331     HGA3     9     0.000000     0.794960     3
  NG2R51   CG2R53   CG3C41   CG3C41     9     0.000000     1.548080     3
  NG2R51   CG2R53   CG3C41   CG3C41     9   180.000000     0.292880     4
  NG2R51   CG2R53   CG3C41     HGA1     9     0.000000     0.000000     3
  NG2R51   CG2R53   NG2R50   CG251O     9   180.000000    50.208000     2
  NG2R51   CG2R53   NG2R50   CG252O     9   180.000000    50.208000     2
  NG2R51   CG2R53   NG2R50   CG2R51     9   180.000000    58.576000     2
  NG2R51   CG2R53   NG2R50   CG2R53     9   180.000000    50.208000     2
  NG2R51   CG2R53   NG2R50   CG2RC0     9   180.000000    58.576000     2
  NG2R51   CG2R53   NG2R50   NG2R50     9   180.000000    58.576000     2
  NG2R51   CG2R53   NG2R50   NG3C51     9   180.000000    52.802080     2
  NG2R51   CG2R53   NG2R51   CG2R51     9   180.000000    11.129440     2
  NG2R51   CG2R53   NG2R51   CG2RC0     9   180.000000     4.393200     2
  NG2R51   CG2R53   NG2R51   CG2RC0     9     0.000000     2.845120     6
  NG2R51   CG2R53   NG2R51    CG331     9     0.000000    10.920240     2
  NG2R51   CG2R53   NG2R51   CG3C50     9   180.000000    48.032320     2
  NG2R51   CG2R53   NG2R51   CG3C52     9   180.000000    18.953520     2
  NG2R51   CG2R53   NG2R51     HGP1     9   180.000000     3.096160     2
  NG2R51   CG2R53   NG2RC0   CG2R61     9   180.000000     8.451680     2
  NG2R51   CG2R53   NG2RC0   CG2RC0     9   180.000000    25.857120     2
  NG2R51   CG2R53    NG301    CG321     9     0.000000     0.543920     2
  NG2R51   CG2R53    NG301    CG321     9     0.000000     1.213360     6
  NG2R51   CG2R53    NG311    CG1N1     9   180.000000    13.765360     2
  NG2R51   CG2R53    NG311   HGPAM1     9   180.000000     1.464400     2
  NG2R51   CG2R53    NG311   HGPAM1     9   180.000000     0.836800     4
  NG2R51   CG2R53   NG3C51    CG311     9   180.000000     1.213360     2
  NG2R51   CG2R53   NG3C51    CG311     9     0.000000     1.757280     6
  NG2R51   CG2R53   NG3C51    CG321     9   180.000000    10.250800     2
  NG2R51   CG2R53   NG3C51    CG321     9   180.000000     0.083680     6
  NG2R51   CG2R53   NG3C51    CG331     9   180.000000     3.389040     2
  NG2R51   CG2R53   NG3C51    CG331     9   180.000000     2.468560     6
  NG2R51   CG2R53   NG3C51   CG3C52     9     0.000000     0.251040     2
  NG2R51   CG2R53   NG3C51   CG3C52     9   180.000000     0.376560     6
  NG2R51   CG2R53   NG3C51     HGP1     9   180.000000    17.572800     2
  NG2R51   CG2R53   NG3C51     HGP1     9   180.000000     8.493520     3
  NG2R51   CG2R53   OG3C51   CG3C51     9   180.000000     6.861760     2
  NG2R51   CG2R53   OG3C51   CG3C51     9     0.000000     3.849280     3
  NG2R51   CG2R53   SG2R50   CG2R51     9   180.000000     5.648400     2
  NG2R51   CG2R53    SG311   CG3C50     9     0.000000    21.924160     1
  NG2R51   CG2R53    SG311   CG3C50     9     0.000000     2.259360     2
  NG2R51   CG2R57   CG2R57   OG2R50     9     0.000000     0.000000     2
  NG2R51   CG2R57   CG2R57   OG2R50     9   180.000000     1.380720     4
  NG2R51   CG2R57   CG3C51   CG3C52     9   180.000000     2.217520     3
  NG2R51   CG2R57   CG3C51   CG3C53     9   180.000000     0.836800     3
  NG2R51   CG2R57   CG3C51   OG3C51     9     0.000000     5.857600     1
  NG2R51   CG2R57   CG3C51   OG3C51     9   180.000000     3.179840     2
  NG2R51   CG2R57   CG3C51   OG3C51     9   180.000000     4.727920     3
  NG2R51   CG2R57   CG3C51     HGA1     9     0.000000     0.000000     3
  NG2R51   CG2R57   CG3C53   CG3C52     9   180.000000     1.171520     2
  NG2R51   CG2R57   CG3C53   CG3C52     9   180.000000    15.020560     3
  NG2R51   CG2R57   CG3C53    NG3P2     9     0.000000    11.254960     3
  NG2R51   CG2R57   CG3C53     HGA1     9     0.000000     0.000000     3
  NG2R51   CG2R57   CG3RC1   CG3C52     9     0.000000     4.811600     3
  NG2R51   CG2R57   CG3RC1    NG2S0     9     0.000000     0.920480     2
  NG2R51   CG2R57   CG3RC1    NG2S0     9   180.000000     1.422560     3
  NG2R51   CG2R57   CG3RC1     HGA1     9     0.000000     0.000000     3
  NG2R51   CG2R57   NG2R50   CG2RC0     9   180.000000    31.170800     2
  NG2R51   CG2R57   NG2R50   NG2R50     9   180.000000    76.399840     2
  NG2R51   CG2R57   NG2R57   CG2RC0     9     0.000000     0.753120     2
  NG2R51   CG2R57   NG2R57   CG2RC0     9   180.000000     0.585760     4
  NG2R51   CG2R57   NG2R57   CG2RC0     9     0.000000     1.589920     6
  NG2R51   CG2R57   NG2R57   CG3C52     9   180.000000     0.920480     2
  NG2R51   CG2R57   NG2R57   CG3C52     9   180.000000     4.435040     4
  NG2R51   CG2R57   NG2R57   CG3C52     9     0.000000     1.046000     6
  NG2R51   CG2R61   CG2R61    HGR61     9   180.000000    10.041600     2
  NG2R51   CG2R61   CG2RC0   CG2RC0     9   180.000000     6.276000     2
  NG2R51   CG2R61   CG2RC0   OG2R50     9     0.000000     0.041840     2
  NG2R51   CG2R62   CG2R62    HGR63     9   180.000000     8.744560     2
  NG2R51   CG2R62   NG2R61   CG2R62     9   180.000000    12.677520     2
  NG2R51   CG2R62   NG2R61     HGP2     9   180.000000     7.698560     2
  NG2R51   CG2R64   CG2R66   CG2R61     9   180.000000    16.736000     2
  NG2R51   CG2R64   CG2R66     FGR1     9   180.000000    12.091760     2
  NG2R51   CG2R64   CG2RC0   CG2R51     9   180.000000     1.380720     2
  NG2R51   CG2R64   CG2RC0   NG2RC0     9   180.000000     9.079280     2
  NG2R51   CG2R64   NG2R60   CG2R61     9   180.000000    16.736000     2
  NG2R51   CG2R64   NG2R62   CG2R64     9   180.000000     7.531200     2
  NG2R51   CG2RC0   CG2RC0   NG2R51     9     0.000000     0.000000     2
  NG2R51   CG2RC0   CG2RC0   NG2R61     9     0.000000     0.627600     2
  NG2R51   CG2RC0   CG2RC0   NG2R62     9   180.000000    35.564000     2
  NG2R51   CG2RC0   CG2RC0   SG2R50     9   180.000000    28.785920     2
  NG2R51   CG2RC0   NG2R60   CG2R64     9     0.000000     0.041840     2
  NG2R51   CG2RC0   NG2R61   CG2R63     9   180.000000     0.000000     2
  NG2R51   CG2RC0   NG2R61   CG2RC0     9   180.000000     0.000000     2
  NG2R51   CG2RC0   NG2R61    CG331     9   180.000000     0.836800     2
  NG2R51   CG2RC0   NG2R61     HGP1     9   180.000000     1.882800     2
  NG2R51   CG2RC0   NG2R62   CG2R64     9   180.000000     8.368000     2
  NG2R51   CG2RC0   NG2R67   CG2R63     9     0.000000     4.393200     2
  NG2R51   CG2RC0   NG2R67   CG2R67     9     0.000000     2.050160     2
  NG2R51    CG301    CG321    CG311     9     0.000000     0.418400     2
  NG2R51    CG301    CG321    CG311     9   180.000000     7.447520     3
  NG2R51    CG301    CG321    CG324     9     0.000000     2.510400     2
  NG2R51    CG301    CG321    CG324     9     0.000000     4.058480     3
  NG2R51    CG301    CG321    NG311     9   180.000000     1.171520     1
  NG2R51    CG301    CG321    NG311     9     0.000000    10.167120     4
  NG2R51    CG301    CG321     HGA2     9     0.000000     0.000000     3
  NG2R51    CG301    CG331     HGA3     9     0.000000     0.836800     3
  NG2R51    CG311    CG311    NG321     9     0.000000     8.577200     1
  NG2R51    CG311    CG311    NG321     9   180.000000     2.050160     3
  NG2R51    CG311    CG311    OG311     9     0.000000     1.799120     3
  NG2R51    CG311    CG311     HGA1     9     0.000000     0.000000     3
  NG2R51    CG311    CG314    CG321     9     0.000000     0.251040     3
  NG2R51    CG311    CG314    NG3P3     9     0.000000     7.405680     3
  NG2R51    CG311    CG314     HGA1     9     0.000000     0.000000     3
  NG2R51    CG311    CG321    CG311     9     0.000000     0.836800     3
  NG2R51    CG311    CG321    CG321     9     0.000000     4.727920     3
  NG2R51    CG311    CG321    NG2S1     9     0.000000     2.008320     3
  NG2R51    CG311    CG321    NG301     9   180.000000     3.221680     1
  NG2R51    CG311    CG321    NG301     9     0.000000     3.347200     4
  NG2R51    CG311    CG321   OG3C61     9   180.000000     9.916080     1
  NG2R51    CG311    CG321   OG3C61     9   180.000000     2.050160     3
  NG2R51    CG311    CG321     HGA2     9     0.000000     0.000000     3
  NG2R51    CG311    CG324    NG3P2     9   180.000000     6.108640     3
  NG2R51    CG311    CG324     HGA2     9     0.000000     0.000000     3
  NG2R51    CG311    OG311     HGP1     9   180.000000     1.171520     1
  NG2R51    CG311    OG311     HGP1     9     0.000000     3.723760     2
  NG2R51    CG311    OG311     HGP1     9     0.000000     3.556400     3
  NG2R51    CG311   OG3C61    CG321     9   180.000000     7.782240     1
  NG2R51    CG311   OG3C61    CG321     9     0.000000     4.937120     2
  NG2R51    CG311   OG3C61    CG321     9     0.000000     1.715440     3
  NG2R51    CG311   OG3C61    CG321     9     0.000000     0.292880     4
  NG2R51    CG321    CG321    NG2S0     9     0.000000    26.526560     3
  NG2R51    CG321    CG321    NG301     9     0.000000     1.129680     3
  NG2R51    CG321    CG321    NG311     9   180.000000     4.518720     3
  NG2R51    CG321    CG321   OG3C61     9     0.000000     4.351360     1
  NG2R51    CG321    CG321   OG3C61     9     0.000000     3.054320     3
  NG2R51    CG321    CG321     HGA2     9     0.000000     0.836800     3
  NG2R51    CG321    CG324    NG3P2     9     0.000000     4.100320     3
  NG2R51    CG321    CG324     HGA2     9     0.000000     0.836800     3
  NG2R51    CG321    CG331     HGA3     9     0.000000     0.815880     3
  NG2R51    CG321    CG2O1      NH1     9     0.000000     2.449314     1
  NG2R51    CG321    CG2O1        N     9     0.000000     2.510400     1
  NG2R51    CG321      CT1        C     9     0.000000     9.386386     1
  NG2R51    CG321      CT1        C     9     0.000000     5.843374     2
  NG2R51    CG321      CT1        C     9     0.000000     4.808671     3
  NG2R51    CG321      CT1      HB1     9     0.000000     1.658538     2
  NG2R51    CG321      CT1      HB1     9   180.000000     9.331575     3
  NG2R51    CG321      CT1      NH1     9     0.000000     0.411706     2
  NG2R51    CG321      CT1      NH1     9     0.000000     4.441316     3
  NG2R51    CG321     CTD1        C     9     0.000000     9.386386     1
  NG2R51    CG321     CTD1        C     9     0.000000     5.843374     2
  NG2R51    CG321     CTD1        C     9     0.000000     4.808671     3
  NG2R51    CG321     CTD1      HB1     9     0.000000     1.658538     2
  NG2R51    CG321     CTD1      HB1     9   180.000000     9.331575     3
  NG2R51    CG321     CTD1      NH1     9     0.000000     0.411706     2
  NG2R51    CG321     CTD1      NH1     9     0.000000     4.441316     3
  NG2R51   CG3C41   CG3C41     HGA2     9     0.000000     0.000000     3
  NG2R51   CG3C50   NG3C51   NG2R50     9     0.000000     2.301200     2
  NG2R51   CG3C50   NG3C51   NG2R50     9   180.000000    40.584800     3
  NG2R51   CG3C50   NG3C51     HGP1     9     0.000000    18.995360     1
  NG2R51   CG3C50   NG3C51     HGP1     9   180.000000    33.555680     2
  NG2R51   CG3C50   NG3C51     HGP1     9     0.000000     8.577200     3
  NG2R51   CG3C51   CG3C51    OG303     9     0.000000     0.000000     3
  NG2R51   CG3C51   CG3C51    OG311     9     0.000000     0.000000     3
  NG2R51   CG3C51   CG3C51     HGA1     9     0.000000     0.000000     3
  NG2R51   CG3C51   CG3C52   CG3C51     9     0.000000     0.000000     3
  NG2R51   CG3C51   CG3C52   CG3C52     9     0.000000     0.000000     3
  NG2R51   CG3C51   CG3C52   CG3C54     9     0.000000    15.648160     3
  NG2R51   CG3C51   CG3C52    SG311     9     0.000000     5.020800     2
  NG2R51   CG3C51   CG3C52    SG311     9   180.000000     3.012480     4
  NG2R51   CG3C51   CG3C52     HGA2     9     0.000000     0.000000     3
  NG2R51   CG3C51   CG3C53   CG3C52     9     0.000000     0.000000     3
  NG2R51   CG3C51   CG3C53    NG3P3     9     0.000000    13.346960     3
  NG2R51   CG3C51   CG3C53     HGA1     9     0.000000     0.000000     3
  NG2R51   CG3C51   CG3C54    NG3P2     9   180.000000     9.204800     3
  NG2R51   CG3C51   CG3C54     HGA2     9     0.000000     0.000000     3
  NG2R51   CG3C51   CG3RC1   CG3C31     9     0.000000     0.627600     3
  NG2R51   CG3C51   CG3RC1   CG3RC1     9     0.000000     0.627600     3
  NG2R51   CG3C51   CG3RC1     HGA1     9     0.000000     0.627600     3
  NG2R51   CG3C51   OG3C51   CG3C51     9     0.000000     0.000000     3
  NG2R51   CG3C51   OG3C51   CG3C52     9     0.000000     0.000000     3
  NG2R51   CG3C52   CG3C52   NG3C51     9     0.000000     2.092000     2
  NG2R51   CG3C52   CG3C52   NG3C51     9     0.000000     7.573040     3
  NG2R51   CG3C52   CG3C52   NG3C51     9     0.000000     3.681920     6
  NG2R51   CG3C52   CG3C52   OG3C51     9     0.000000     0.000000     2
  NG2R51   CG3C52   CG3C52   OG3C51     9   180.000000    13.388800     3
  NG2R51   CG3C52   CG3C52     HGA2     9     0.000000     0.000000     3
  NG2R51   CG3C52   NG3C51   NG2R50     9     0.000000     6.778080     3
  NG2R51   CG3C52   NG3C51   NG2R50     9     0.000000     8.284320     4
  NG2R51   CG3C52   NG3C51     HGP1     9   180.000000    11.715200     1
  NG2R51   CG3C52   NG3C51     HGP1     9     0.000000     7.363840     2
  NG2R51   CG3C52   NG3C51     HGP1     9     0.000000     1.715440     3
  NG2R51   CG3RC1   CG3RC1     HGA1     9     0.000000     0.627600     3
  NG2R51    OG301    OG311     HGP1     9     0.000000     6.415327     1
  NG2R51    OG301    OG311     HGP1     9     0.000000     6.283113     2
  NG2R51    OG301    OG311     HGP1     9     0.000000     1.585318     3
  NG2R51      CT2      CT2      HA2     9     0.000000     0.815880     3
  NG2R51     CN7B     CN7B    OG301     9     0.000000     0.000000     3
  NG2R51     CN7B     CN7B      ON5     9     0.000000     0.000000     3
  NG2R51     CN7B     CN7B      HN7     9     0.000000     0.000000     3
  NG2R51     CN7B     CN7B      CN7     9     0.000000     0.000000     3
  NG2R51     CN7B     ON6B      CN7     9     0.000000     0.000000     3
  NG2R51     CN7B      ON6      CN7     9     0.000000     0.000000     3
  NG2R51     CN7B      CN8      CN7     9     0.000000     0.000000     3
  NG2R51     CN7B      CN8      HN8     9     0.000000     0.000000     3
  NG3C51   CG251O    CG2D2     HGA5     9   180.000000    25.062160     2
  NG3C51   CG251O   CG3C52   CG3C52     9     0.000000     0.000000     2
  NG3C51   CG251O   CG3C52   CG3C52     9     0.000000     1.631760     6
  NG3C51   CG251O   CG3C52     HGA2     9   180.000000     0.000000     3
  NG3C51   CG252O    CG2D2     HGA5     9   180.000000    25.062160     2
  NG3C51   CG252O   CG3C52   CG3C52     9     0.000000     0.000000     2
  NG3C51   CG252O   CG3C52   CG3C52     9     0.000000     1.631760     6
  NG3C51   CG252O   CG3C52     HGA2     9   180.000000     0.000000     3
  NG3C51   CG2D1O    CG2D2     HGA5     9   180.000000    24.183520     2
  NG3C51   CG2R51   CG2R51    HGR51     9   180.000000    14.644000     2
  NG3C51   CG2R51    CG331     HGA3     9     0.000000     1.171520     3
  NG3C51   CG2R53    CG331     HGA3     9     0.000000     1.171520     3
  NG3C51   CG2R53   CG3C52   CG3C52     9   180.000000    15.146080     2
  NG3C51   CG2R53   CG3C52     HGA2     9   180.000000     0.000000     3
  NG3C51   CG2R53   NG2R50   CG2R51     9   180.000000   110.290240     2
  NG3C51   CG2R53   NG2R50   CG2R53     9   180.000000    30.961600     2
  NG3C51   CG2R53   NG2R50   CG2RC0     9   180.000000    46.400560     2
  NG3C51   CG2R53   NG2R50   CG3C41     9   180.000000    64.810160     2
  NG3C51   CG2R53   NG2R50   CG3C52     9   180.000000    75.312000     2
  NG3C51   CG2R53   NG2R51   CG2R51     9     0.000000     0.000000     2
  NG3C51   CG2R53   NG2R51   CG2RC0     9   180.000000    49.203840     2
  NG3C51   CG2R53   NG2R51   CG3C52     9   180.000000    10.125280     2
  NG3C51   CG2R61   CG2R61    HGR61     9   180.000000    10.041600     2
  NG3C51   CG2R61   CG2R61    HGR62     9   180.000000    10.041600     2
  NG3C51   CG2R61   CG2RC0   CG2RC0     9   180.000000     4.560560     2
  NG3C51   CG2R61   CG2RC0   NG2R50     9   180.000000     2.552240     2
  NG3C51   CG2R62   CG2R62    HGR62     9   180.000000    11.422320     2
  NG3C51   CG2R62   CG2R62    HGR63     9   180.000000     3.807440     2
  NG3C51   CG2R62   CG2R63   NG2R61     9     0.000000     1.924640     2
  NG3C51   CG2R62   CG2R63    OG2D4     9   180.000000     6.652560     2
  NG3C51   CG2R64   NG2R60   CG2R61     9   180.000000    12.970400     2
  NG3C51   CG2R64   NG2R60   CG2R62     9   180.000000    12.970400     2
  NG3C51   CG2R64   NG2R61   CG2R63     9   180.000000    12.970400     2
  NG3C51   CG2R64   NG2R61     HGP1     9   180.000000     2.092000     2
  NG3C51   CG2R64   NG2R62   CG2R62     9   180.000000    12.970400     2
  NG3C51   CG2R64   NG2R62   CG2R64     9   180.000000    12.970400     2
  NG3C51   CG2RC0   CG2RC0   NG3C51     9     0.000000     0.083680     2
  NG3C51   CG2RC0   CG2RC0   OG3C51     9   180.000000    26.150000     2
  NG3C51   CG2RC0   NG2R61   CG2R62     9   180.000000    29.748240     2
  NG3C51   CG2RC0   NG2R61   CG2R63     9     0.000000     0.000000     2
  NG3C51   CG2RC0   NG2R61   CG3C52     9     0.000000     0.711280     2
  NG3C51   CG2RC0   NG2R61     HGP2     9   180.000000    15.690000     2
  NG3C51   CG2RC0   NG2R62   NG2R62     9   180.000000     2.761440     2
  NG3C51    CG311    CG311     HGA1     9     0.000000     0.836800     3
  NG3C51    CG311    CG321    CG2O5     9   180.000000     0.292880     1
  NG3C51    CG311    CG321    CG2O5     9     0.000000     0.962320     2
  NG3C51    CG311    CG321    CG2O5     9   180.000000     9.874240     3
  NG3C51    CG311    CG321    CG2O5     9   180.000000     1.548080     6
  NG3C51    CG311    CG321    CG321     9     0.000000     0.836800     3
  NG3C51    CG311    CG321   CG3C41     9   180.000000    11.589680     3
  NG3C51    CG311    CG321   CG3C41     9   180.000000     1.631760     6
  NG3C51    CG311    CG321     HGA2     9     0.000000     0.669440     3
  NG3C51    CG311    CG331     HGA3     9     0.000000     0.669440     3
  NG3C51    CG311   CG3RC1   CG3C52     9     0.000000     1.213360     3
  NG3C51    CG311   CG3RC1   CG3C52     9   180.000000     4.267680     4
  NG3C51    CG311   CG3RC1   CG3RC1     9   180.000000    18.618800     2
  NG3C51    CG311   CG3RC1     HGA1     9     0.000000     0.000000     3
  NG3C51    CG321    CG321     HGA2     9     0.000000     0.836800     3
  NG3C51    CG321    CG331     HGA3     9     0.000000     0.669440     3
  NG3C51    CG321    OG311     HGP1     9     0.000000     5.146320     1
  NG3C51    CG321    OG311     HGP1     9     0.000000     4.267680     2
  NG3C51    CG321    OG311     HGP1     9     0.000000     0.251040     3
  NG3C51   CG3C41   CG3C41   OG3C51     9   180.000000     2.928800     2
  NG3C51   CG3C41   CG3C41   OG3C51     9     0.000000     2.008320     3
  NG3C51   CG3C41   CG3C41     HGA2     9     0.000000     0.000000     3
  NG3C51   CG3C41   OG3C51   CG3C52     9     0.000000     0.000000     2
  NG3C51   CG3C41   OG3C51   CG3C52     9   180.000000     2.259360     3
  NG3C51   CG3C50   CG3C51   CG3C52     9     0.000000     0.125520     3
  NG3C51   CG3C50   CG3C51   CG3C52     9   180.000000     5.188160     4
  NG3C51   CG3C50   CG3C51    OG311     9     0.000000     1.213360     3
  NG3C51   CG3C50   CG3C51    OG311     9     0.000000     6.736240     4
  NG3C51   CG3C50   CG3C51     HGA1     9     0.000000     0.000000     3
  NG3C51   CG3C50   CG3C52   CG3C52     9     0.000000     2.886960     3
  NG3C51   CG3C50   CG3C52   CG3C54     9     0.000000     0.585760     3
  NG3C51   CG3C50   CG3C52   CG3C54     9     0.000000     0.167360     4
  NG3C51   CG3C50   CG3C52   NG2R50     9     0.000000     3.765600     3
  NG3C51   CG3C50   CG3C52   NG2R50     9     0.000000     0.836800     4
  NG3C51   CG3C50   CG3C52   NG3C51     9   180.000000     6.778080     3
  NG3C51   CG3C50   CG3C52     HGA2     9     0.000000     0.000000     3
  NG3C51   CG3C50   CG3C54    NG3P2     9     0.000000     3.263520     3
  NG3C51   CG3C50   CG3C54     HGA2     9     0.000000     0.000000     3
  NG3C51   CG3C50   CG3RC1   CG3C52     9     0.000000     0.711280     3
  NG3C51   CG3C50   CG3RC1     HGA1     9     0.000000     0.000000     3
  NG3C51   CG3C50   NG2R51   CG2R53     9     0.000000    25.438720     1
  NG3C51   CG3C50   NG2R51   CG2R53     9     0.000000     2.510400     2
  NG3C51   CG3C50   NG2R51   CG2RC0     9   180.000000    19.120880     1
  NG3C51   CG3C50   NG2R51   CG2RC0     9     0.000000     1.673600     2
  NG3C51   CG3C50   NG2R51   CG2RC0     9   180.000000     1.380720     3
  NG3C51   CG3C50   NG3C51   CG2RC0     9     0.000000     2.426720     3
  NG3C51   CG3C50   NG3C51   CG2RC0     9     0.000000     4.184000     6
  NG3C51   CG3C50   NG3C51     HGP1     9     0.000000     2.803280     1
  NG3C51   CG3C50   NG3C51     HGP1     9   180.000000     1.255200     3
  NG3C51   CG3C50   NG3C51     HGP1     9   180.000000     2.175680     6
  NG3C51   CG3C50    OG311     HGP1     9     0.000000     2.426720     1
  NG3C51   CG3C50    OG311     HGP1     9     0.000000     0.753120     2
  NG3C51   CG3C50    OG311     HGP1     9   180.000000     1.548080     3
  NG3C51   CG3C51   CG3C51   NG3C51     9     0.000000     7.322000     3
  NG3C51   CG3C51   CG3C51    OG311     9   180.000000     0.041840     3
  NG3C51   CG3C51   CG3C51    OG311     9     0.000000    11.547840     4
  NG3C51   CG3C51   CG3C51   OG3C51     9   180.000000     2.301200     3
  NG3C51   CG3C51   CG3C51     HGA1     9     0.000000     0.000000     3
  NG3C51   CG3C51   CG3C52   CG2RC0     9     0.000000    10.376320     3
  NG3C51   CG3C51   CG3C52   CG3C50     9     0.000000     2.886960     3
  NG3C51   CG3C51   CG3C52   CG3C51     9     0.000000     2.886960     3
  NG3C51   CG3C51   CG3C52   CG3C52     9     0.000000     2.886960     3
  NG3C51   CG3C51   CG3C52   CG3C53     9     0.000000     0.167360     3
  NG3C51   CG3C51   CG3C52   CG3C54     9     0.000000     0.167360     3
  NG3C51   CG3C51   CG3C52    SG311     9     0.000000     2.384880     3
  NG3C51   CG3C51   CG3C52    SG311     9     0.000000     2.803280     4
  NG3C51   CG3C51   CG3C52     HGA2     9     0.000000     0.000000     3
  NG3C51   CG3C51   CG3C54    NG3P2     9     0.000000     2.050160     3
  NG3C51   CG3C51   CG3C54     HGA2     9     0.000000     0.000000     3
  NG3C51   CG3C51   CG3RC1   CG2R52     9     0.000000     0.000000     2
  NG3C51   CG3C51   CG3RC1   CG2R52     9     0.000000     2.092000     3
  NG3C51   CG3C51   CG3RC1    CG321     9   180.000000     6.150480     3
  NG3C51   CG3C51   CG3RC1    CG321     9     0.000000     3.640080     6
  NG3C51   CG3C51   CG3RC1     HGA1     9     0.000000     0.000000     3
  NG3C51   CG3C51   NG2R53   CG2R53     9     0.000000     1.004160     2
  NG3C51   CG3C51   NG2R53   CG2R53     9   180.000000     2.970640     3
  NG3C51   CG3C51   NG2R53    CG331     9     0.000000     0.292880     2
  NG3C51   CG3C51   NG2R53    CG331     9   180.000000     2.426720     3
  NG3C51   CG3C51   OG3C51   CG2RC0     9     0.000000     1.799120     2
  NG3C51   CG3C51   OG3C51   CG2RC0     9     0.000000     0.209200     3
  NG3C51   CG3C51    SG311    CG321     9   180.000000     5.066824     1
  NG3C51   CG3C51    SG311    CG321     9     0.000000     6.901090     2
  NG3C51   CG3C51    SG311    CG321     9   180.000000     3.673134     3
  NG3C51   CG3C51    CG2O1        N     9     0.000000     2.510400     1
  NG3C51   CG3C52   CG3C52   NG3C51     9     0.000000     0.000000     2
  NG3C51   CG3C52   CG3C52   NG3C51     9   180.000000     0.920480     3
  NG3C51   CG3C52   CG3C52   OG3C51     9     0.000000     0.209200     3
  NG3C51   CG3C52   CG3C52   OG3C51     9   180.000000    13.012240     4
  NG3C51   CG3C52   CG3C52    SG311     9   180.000000    12.008080     3
  NG3C51   CG3C52   CG3C52    SG311     9   180.000000     0.502080     4
  NG3C51   CG3C52   CG3C52     HGA2     9     0.000000     0.000000     3
  NG3C51   CG3C52   CG3C53   CG3C52     9     0.000000     2.886960     3
  NG3C51   CG3C52   CG3C53    NG3P3     9     0.000000     2.050160     3
  NG3C51   CG3C52   CG3C53     HGA1     9     0.000000     0.000000     3
  NG3C51   CG3C52   CG3C54    NG3P2     9     0.000000     2.050160     3
  NG3C51   CG3C52   CG3C54     HGA2     9   180.000000     1.548080     3
  NG3C51   CG3C52   CG3RC1    CG2O1     9   180.000000     9.957920     3
  NG3C51   CG3C52   CG3RC1    CG2O1     9   180.000000     3.974800     4
  NG3C51   CG3C52   CG3RC1    CG302     9   180.000000     2.426720     3
  NG3C51   CG3C52   CG3RC1    CG302     9   180.000000     4.393200     6
  NG3C51   CG3C52   CG3RC1    CG311     9   180.000000     5.648400     3
  NG3C51   CG3C52   CG3RC1    CG311     9   180.000000     5.062640     6
  NG3C51   CG3C52   CG3RC1    CG314     9   180.000000     0.794960     2
  NG3C51   CG3C52   CG3RC1    CG314     9     0.000000     2.259360     3
  NG3C51   CG3C52   CG3RC1    CG321     9   180.000000     3.305360     2
  NG3C51   CG3C52   CG3RC1    CG321     9   180.000000     2.008320     3
  NG3C51   CG3C52   CG3RC1    CG331     9     0.000000     0.334720     3
  NG3C51   CG3C52   CG3RC1    CG331     9   180.000000     1.297040     6
  NG3C51   CG3C52   CG3RC1   CG3C31     9   180.000000     4.978960     2
  NG3C51   CG3C52   CG3RC1   CG3C31     9   180.000000     0.167360     3
  NG3C51   CG3C52   CG3RC1   CG3C31     9   180.000000     0.125520     6
  NG3C51   CG3C52   CG3RC1   CG3C41     9   180.000000     7.907760     2
  NG3C51   CG3C52   CG3RC1   CG3C41     9     0.000000    10.920240     3
  NG3C51   CG3C52   CG3RC1   CG3C52     9     0.000000     9.539520     3
  NG3C51   CG3C52   CG3RC1   CG3C52     9   180.000000     0.669440     6
  NG3C51   CG3C52   CG3RC1   CG3RC1     9   180.000000     1.464400     2
  NG3C51   CG3C52   CG3RC1   CG3RC1     9     0.000000     6.192320     4
  NG3C51   CG3C52   CG3RC1   CG3RC1     9   180.000000     0.836800     6
  NG3C51   CG3C52   CG3RC1    NG3P3     9     0.000000     0.125520     2
  NG3C51   CG3C52   CG3RC1    NG3P3     9     0.000000    11.171280     3
  NG3C51   CG3C52   CG3RC1    SG3O2     9   180.000000     8.075120     3
  NG3C51   CG3C52   CG3RC1    SG3O2     9   180.000000     1.631760     6
  NG3C51   CG3C52   CG3RC1     HGA1     9     0.000000     0.000000     3
  NG3C51   CG3C52   NG2R51   CG2R51     9   180.000000     0.000000     1
  NG3C51   CG3C52   NG2R51   CG2R51     9     0.000000     0.000000     2
  NG3C51   CG3C52   NG2R51   CG2R51     9   180.000000    11.213120     3
  NG3C51   CG3C52   NG2R51   CG2R53     9     0.000000     0.000000     1
  NG3C51   CG3C52   NG2R51   CG2R53     9     0.000000     0.000000     2
  NG3C51   CG3C52   NG2R51   CG2RC0     9   180.000000     0.000000     1
  NG3C51   CG3C52   NG2R51   CG2RC0     9   180.000000     0.000000     2
  NG3C51   CG3C52   NG2R51   CG2RC0     9   180.000000     0.000000     3
  NG3C51   CG3C52   NG2R51   CG2RC0     9   180.000000     1.338880     6
  NG3C51   CG3C52   NG3C51   CG2RC0     9     0.000000     0.000000     2
  NG3C51   CG3C52   NG3C51   CG2RC0     9   180.000000     7.196480     3
  NG3C51   CG3C52   NG3C51   CG2RC0     9     0.000000     1.464400     6
  NG3C51   CG3C52   NG3C51    CG331     9     0.000000     0.585760     3
  NG3C51   CG3C52   NG3C51   CG3C52     9   180.000000    17.112560     3
  NG3C51   CG3C52   NG3C51   CG3C52     9     0.000000    17.363600     4
  NG3C51   CG3C52   NG3C51     HGP1     9     0.000000     2.635920     1
  NG3C51   CG3C52   NG3C51     HGP1     9   180.000000     4.937120     2
  NG3C51   CG3C52   NG3C51     HGP1     9     0.000000     1.799120     3
  NG3C51   CG3C52   NG3C51     HGP1     9   180.000000     2.133840     4
  NG3C51   CG3C52    SG311   CG3C52     9   180.000000     0.041840     1
  NG3C51   CG3C52    SG311   CG3C52     9     0.000000     0.000000     2
  NG3C51   CG3C52    SG311   CG3C52     9     0.000000     0.669440     3
  NG3C51   CG3C53   NG2R52   CG2RC0     9     0.000000     0.000000     2
  NG3C51   CG3C53   NG2R52   CG2RC0     9     0.000000     0.836800     6
  NG3C51   CG3C53   NG2R52     HGP2     9   180.000000    14.518480     1
  NG3C51   CG3C53   NG2R52     HGP2     9   180.000000     4.644240     2
  NG3C51   CG3C54    NG3P2   CG3C54     9   180.000000    11.464160     3
  NG3C51   CG3C54    NG3P2     HGP2     9   180.000000     0.669440     3
  NG3C51   CG3RC1   CG3RC1     HGA1     9     0.000000     0.000000     3
  SG2R50   CG251O    CG2D2     HGA5     9   180.000000    15.355280     2
  SG2R50   CG251O   NG2R51   CG2RC0     9     0.000000     2.259360     2
  SG2R50   CG251O   NG2R51    CG331     9     0.000000     4.476880     2
  SG2R50   CG252O    CG2D2     HGA5     9   180.000000    15.355280     2
  SG2R50   CG252O   NG2R51   CG2RC0     9     0.000000     2.259360     2
  SG2R50   CG252O   NG2R51    CG331     9     0.000000     4.476880     2
  SG2R50   CG2R51   CG2R51    SG3O1     9   180.000000     9.455840     2
  SG2R50   CG2R51   CG2R51    SG3O2     9   180.000000    11.715200     2
  SG2R50   CG2R51   CG2R51    HGR51     9   180.000000    16.736000     2
  SG2R50   CG2R51   CG2R51    HGR52     9   180.000000    23.012000     2
  SG2R50   CG2R51   CG2R51      CT1     9   180.000000    28.249113     2
  SG2R50   CG2R51   CG2R51     CTD1     9   180.000000    28.249113     2
  SG2R50   CG2R51   CG2R52    CG331     9   180.000000    28.242000     2
  SG2R50   CG2R51   CG2R52   NG2R50     9   180.000000    29.288000     2
  SG2R50   CG2R51   CG2R57   CG2R51     9   180.000000     8.200640     2
  SG2R50   CG2R51   CG2R57   CG2R57     9   180.000000    11.464160     2
  SG2R50   CG2R51   CG2R57   NG2R52     9     0.000000     0.000000     2
  SG2R50   CG2R51    CG301    CG321     9     0.000000     0.878640     1
  SG2R50   CG2R51    CG301    CG321     9   180.000000     0.000000     3
  SG2R50   CG2R51    CG301    CG321     9   180.000000     0.292880     6
  SG2R50   CG2R51    CG301    OG311     9   180.000000     2.719600     1
  SG2R50   CG2R51    CG301    OG311     9     0.000000     0.920480     3
  SG2R50   CG2R51    CG301    OG311     9   180.000000     0.209200     6
  SG2R50   CG2R51    CG311   CG2R51     9   180.000000     4.184000     1
  SG2R50   CG2R51    CG311   CG2R51     9   180.000000     0.041840     3
  SG2R50   CG2R51    CG311   CG2R51     9   180.000000     0.167360     6
  SG2R50   CG2R51    CG311    CG314     9     0.000000     1.171520     1
  SG2R50   CG2R51    CG311    CG314     9     0.000000     0.669440     3
  SG2R50   CG2R51    CG311    CG314     9   180.000000     5.146320     6
  SG2R50   CG2R51    CG311    CG321     9     0.000000     0.753120     1
  SG2R50   CG2R51    CG311    CG321     9     0.000000     0.292880     3
  SG2R50   CG2R51    CG311    CG331     9     0.000000     0.753120     1
  SG2R50   CG2R51    CG311    CG331     9     0.000000     0.292880     3
  SG2R50   CG2R51    CG311    NG2D1     9     0.000000     0.418400     1
  SG2R50   CG2R51    CG311    NG2D1     9   180.000000     3.849280     3
  SG2R50   CG2R51    CG311    NG2S1     9   180.000000     0.000000     1
  SG2R50   CG2R51    CG311    NG2S1     9     0.000000     0.460240     3
  SG2R50   CG2R51    CG311    NG2S1     9   180.000000     0.000000     4
  SG2R50   CG2R51    CG311    NG301     9   180.000000     1.464400     1
  SG2R50   CG2R51    CG311    NG301     9     0.000000     0.000000     2
  SG2R50   CG2R51    CG311    NG301     9   180.000000     5.815760     3
  SG2R50   CG2R51    CG311    NG311     9   180.000000     3.389040     1
  SG2R50   CG2R51    CG311    NG311     9   180.000000     1.087840     3
  SG2R50   CG2R51    CG311    NG311     9   180.000000     0.418400     6
  SG2R50   CG2R51    CG311    NG321     9     0.000000    13.263280     1
  SG2R50   CG2R51    CG311    NG321     9   180.000000     7.447520     3
  SG2R50   CG2R51    CG311    OG311     9     0.000000     0.167360     1
  SG2R50   CG2R51    CG311    OG311     9   180.000000     0.794960     3
  SG2R50   CG2R51    CG311    SG311     9   180.000000     6.066800     1
  SG2R50   CG2R51    CG311    SG311     9   180.000000     1.631760     3
  SG2R50   CG2R51    CG311    SG311     9   180.000000     0.543920     6
  SG2R50   CG2R51    CG311     HGA1     9     0.000000     0.376560     3
  SG2R50   CG2R51    CG314    CG321     9     0.000000     0.753120     1
  SG2R50   CG2R51    CG314    CG321     9     0.000000     0.292880     3
  SG2R50   CG2R51    CG314    NG3P1     9     0.000000     1.631760     1
  SG2R50   CG2R51    CG314    NG3P1     9     0.000000     3.514560     2
  SG2R50   CG2R51    CG314    NG3P1     9     0.000000     0.000000     3
  SG2R50   CG2R51    CG314     HGA1     9     0.000000     0.376560     3
  SG2R50   CG2R51    CG321    CG321     9     0.000000     0.753120     1
  SG2R50   CG2R51    CG321    CG321     9     0.000000     0.292880     3
  SG2R50   CG2R51    CG321    CG324     9   180.000000     0.125520     1
  SG2R50   CG2R51    CG321    CG324     9     0.000000     0.000000     2
  SG2R50   CG2R51    CG321    CG324     9   180.000000     1.338880     3
  SG2R50   CG2R51    CG321    CG331     9     0.000000     0.738894     1
  SG2R50   CG2R51    CG321    CG331     9     0.000000     0.281165     3
  SG2R50   CG2R51    CG321    NG301     9     0.000000     0.000000     1
  SG2R50   CG2R51    CG321    NG301     9   180.000000     0.041840     2
  SG2R50   CG2R51    CG321    NG301     9   180.000000     0.000000     3
  SG2R50   CG2R51    CG321    NG321     9   180.000000     0.418400     1
  SG2R50   CG2R51    CG321    NG321     9   180.000000     0.000000     3
  SG2R50   CG2R51    CG321    OG311     9   180.000000     1.924640     1
  SG2R50   CG2R51    CG321    OG311     9     0.000000     0.543920     3
  SG2R50   CG2R51    CG321     HGA2     9     0.000000     0.375305     3
  SG2R50   CG2R51    CG321      CT1     9     0.000000     0.738894     1
  SG2R50   CG2R51    CG321      CT1     9     0.000000     0.281165     3
  SG2R50   CG2R51    CG324    NG3P2     9   180.000000     0.669440     1
  SG2R50   CG2R51    CG324    NG3P2     9   180.000000     3.723760     3
  SG2R50   CG2R51    CG324    NG3P2     9   180.000000     1.255200     6
  SG2R50   CG2R51    CG324    NG3P3     9     0.000000    19.079040     1
  SG2R50   CG2R51    CG324    NG3P3     9     0.000000     1.087840     2
  SG2R50   CG2R51    CG324    NG3P3     9     0.000000     1.966480     3
  SG2R50   CG2R51    CG324     HGA2     9     0.000000     0.376560     3
  SG2R50   CG2R51    CG331     HGA3     9     0.000000     0.375305     3
  SG2R50   CG2R51   CG3C52   CG3C52     9   180.000000     5.815760     2
  SG2R50   CG2R51   CG3C52   CG3C52     9     0.000000     1.840960     3
  SG2R50   CG2R51   CG3C52     HGA2     9     0.000000     0.000000     3
  SG2R50   CG2R51   CG3C54   NG2R52     9   180.000000    14.476640     2
  SG2R50   CG2R51   CG3C54     HGA2     9     0.000000     0.000000     3
  SG2R50   CG2R51   NG2R51   CG2R51     9   180.000000    22.551760     2
  SG2R50   CG2R51   NG2R51   CG2R53     9   180.000000    18.116720     2
  SG2R50   CG2R51   NG2R52   CG2R53     9   180.000000    48.492560     2
  SG2R50   CG2R51   NG2R52    CG334     9   180.000000     2.510400     2
  SG2R50   CG2R51   SG2R50   CG2R51     9   180.000000    18.033040     2
  SG2R50   CG2R51   SG2R50   CG2RC0     9   180.000000    18.660640     2
  SG2R50   CG2R51    SG3O2    CG321     9   180.000000     0.083680     1
  SG2R50   CG2R51    SG3O2    CG321     9     0.000000     0.000000     2
  SG2R50   CG2R51    SG3O2   NG2R53     9     0.000000     0.167360     2
  SG2R50   CG2R51    SG3O2   NG2R53     9     0.000000     0.920480     6
  SG2R50   CG2R51    SG3O2    NG301     9   180.000000    13.639840     1
  SG2R50   CG2R51    SG3O2    NG301     9   180.000000     1.004160     2
  SG2R50   CG2R51    SG3O2    OG2P1     9     0.000000     0.000000     6
  SG2R50   CG2R51      CT1        C     9   180.000000     4.304499     2
  SG2R50   CG2R51      CT1      HB1     9   180.000000     4.424998     3
  SG2R50   CG2R51      CT1      NH1     9     0.000000     4.080237     3
  SG2R50   CG2R51     CTD1        C     9   180.000000     4.304499     2
  SG2R50   CG2R51     CTD1      HB1     9   180.000000     4.424998     3
  SG2R50   CG2R51     CTD1      NH1     9     0.000000     4.080237     3
  SG2R50   CG2R53   CG2R61   CG2R61     9   180.000000     3.723760     2
  SG2R50   CG2R53   CG2R61   CG2R61     9     0.000000     0.418400     4
  SG2R50   CG2R53   CG2R61   CG2RC0     9   180.000000     3.723760     2
  SG2R50   CG2R53   CG2R61   CG2RC0     9     0.000000     0.418400     4
  SG2R50   CG2R53   CG2R62   CG2R62     9   180.000000     3.723760     2
  SG2R50   CG2R53   CG2R62   CG2R62     9     0.000000     0.418400     4
  SG2R50   CG2R53   CG2R62   CG2R63     9   180.000000     3.723760     2
  SG2R50   CG2R53   CG2R62   CG2R63     9     0.000000     0.418400     4
  SG2R50   CG2R53    CG301    CG1T1     9   180.000000     2.008320     1
  SG2R50   CG2R53    CG301    CG1T1     9   180.000000     2.301200     2
  SG2R50   CG2R53    CG301    CG1T1     9   180.000000     1.924640     3
  SG2R50   CG2R53    CG301    CG1T1     9     0.000000     3.723760     6
  SG2R50   CG2R53    CG301    CG331     9   180.000000     1.548080     1
  SG2R50   CG2R53    CG301    CG331     9     0.000000     1.924640     2
  SG2R50   CG2R53    CG301    CG331     9     0.000000     2.175680     3
  SG2R50   CG2R53    CG301    CG331     9   180.000000     5.020800     6
  SG2R50   CG2R53    CG301    OG311     9     0.000000     0.794960     1
  SG2R50   CG2R53    CG301    OG311     9     0.000000     0.585760     2
  SG2R50   CG2R53    CG301    OG311     9   180.000000     0.376560     3
  SG2R50   CG2R53    CG301    OG311     9   180.000000     1.673600     6
  SG2R50   CG2R53    CG302     FGA3     9   180.000000     0.000000     1
  SG2R50   CG2R53    CG302     FGA3     9     0.000000     2.761440     3
  SG2R50   CG2R53    CG311    CG331     9   180.000000     1.799120     1
  SG2R50   CG2R53    CG311    CG331     9   180.000000     5.732080     3
  SG2R50   CG2R53    CG311    CG331     9   180.000000     0.418400     6
  SG2R50   CG2R53    CG311    NG321     9   180.000000     1.589920     1
  SG2R50   CG2R53    CG311    NG321     9   180.000000     0.418400     3
  SG2R50   CG2R53    CG311    NG321     9   180.000000     0.878640     6
  SG2R50   CG2R53    CG311     HGA1     9     0.000000     0.000000     3
  SG2R50   CG2R53    CG314    CG331     9   180.000000     0.041840     1
  SG2R50   CG2R53    CG314    CG331     9   180.000000     4.309520     2
  SG2R50   CG2R53    CG314    CG331     9     0.000000     0.167360     3
  SG2R50   CG2R53    CG314    NG3P3     9     0.000000     4.895280     1
  SG2R50   CG2R53    CG314    NG3P3     9   180.000000     2.970640     2
  SG2R50   CG2R53    CG314    NG3P3     9     0.000000     0.627600     3
  SG2R50   CG2R53    CG314     HGA1     9     0.000000     0.000000     3
  SG2R50   CG2R53    CG321    CG331     9     0.000000     0.209200     1
  SG2R50   CG2R53    CG321    CG331     9     0.000000     0.209200     3
  SG2R50   CG2R53    CG321    CG331     9     0.000000     0.041840     4
  SG2R50   CG2R53    CG321    NG321     9     0.000000     0.000000     2
  SG2R50   CG2R53    CG321     HGA2     9     0.000000     0.000000     3
  SG2R50   CG2R53    CG324    NG3P3     9   180.000000     3.974800     2
  SG2R50   CG2R53    CG324     HGA2     9     0.000000     0.000000     3
  SG2R50   CG2R53    CG331     HGA3     9     0.000000     0.376560     3
  SG2R50   CG2R53   CG3C31   CG3C31     9     0.000000     0.460240     1
  SG2R50   CG2R53   CG3C31   CG3C31     9     0.000000     3.347200     3
  SG2R50   CG2R53   CG3C31   CG3C31     9   180.000000     3.263520     4
  SG2R50   CG2R53   CG3C31     HGA1     9     0.000000     0.000000     3
  SG2R50   CG2R53   CG3C41   CG3C41     9   180.000000     0.627600     1
  SG2R50   CG2R53   CG3C41   CG3C41     9     0.000000     3.640080     2
  SG2R50   CG2R53   CG3C41   CG3C41     9   180.000000     0.418400     4
  SG2R50   CG2R53   CG3C41     HGA1     9     0.000000     0.000000     3
  SG2R50   CG2R53   NG2R50   CG2R51     9   180.000000    25.104000     2
  SG2R50   CG2R53   NG2R50   CG2R53     9   180.000000    25.104000     2
  SG2R50   CG2R53   NG2R50   CG2RC0     9   180.000000    52.300000     2
  SG2R50   CG2R53   NG2R51   CG2R51     9     0.000000     0.000000     2
  SG2R50   CG2R53   NG2R51   NG2R50     9     0.000000     0.000000     2
  SG2R50   CG2R53   NG2R52   CG2R51     9     0.000000     0.000000     2
  SG2R50   CG2R53   NG2R52   CG2R57     9   180.000000    32.802560     2
  SG2R50   CG2R53   NG2R52   CG2RC0     9   180.000000     4.351360     2
  SG2R50   CG2R53   NG2R52    CG334     9     0.000000    10.041600     2
  SG2R50   CG2R53   NG2R52   CG3C54     9   180.000000    41.045040     2
  SG2R50   CG2R53   NG2R52     HGP2     9     0.000000     9.330320     2
  SG2R50   CG2R53   NG2R61   CG2R62     9   180.000000     1.715440     2
  SG2R50   CG2R53    NG301    CG321     9   180.000000     1.548080     1
  SG2R50   CG2R53    NG301    CG321     9   180.000000     7.656720     2
  SG2R50   CG2R53    NG301    CG321     9     0.000000     1.171520     4
  SG2R50   CG2R53    NG301    CG321     9   180.000000     0.418400     6
  SG2R50   CG2R53    NG311    CG331     9   180.000000     6.861760     2
  SG2R50   CG2R53    NG311    CG331     9   180.000000     2.552240     4
  SG2R50   CG2R53    NG311   HGPAM1     9     0.000000     0.083680     2
  SG2R50   CG2R53    NG321   HGPAM2     9   180.000000     4.393200     2
  SG2R50   CG2R53    NG321   HGPAM2     9     0.000000     0.753120     3
  SG2R50   CG2R53    OG301    CG331     9     0.000000     0.000000     2
  SG2R50   CG2R53    SG3O2    NG321     9     0.000000     0.920480     1
  SG2R50   CG2R53    SG3O2    NG321     9   180.000000     0.000000     2
  SG2R50   CG2R53    SG3O2    NG321     9   180.000000     3.849280     3
  SG2R50   CG2R53    SG3O2    OG2P1     9     0.000000     0.251040     1
  SG2R50   CG2R53    SG3O2    OG2P1     9   180.000000     1.004160     2
  SG2R50   CG2R53    SG3O2    OG2P1     9   180.000000     1.757280     3
  SG2R50   CG2R53    SG3O2    OG2P1     9     0.000000     0.753120     6
  SG2R50   CG2R53    SG3O2    OG311     9   180.000000     6.317840     1
  SG2R50   CG2R53    SG3O2    OG311     9     0.000000     2.384880     2
  SG2R50   CG2R53    SG3O2    OG311     9     0.000000     0.000000     3
  SG2R50   CG2R57   CG3C50   CG2R53     9   180.000000     3.347200     1
  SG2R50   CG2R57   CG3C50   CG2R53     9     0.000000     4.853440     2
  SG2R50   CG2R57   CG3C50   CG2R53     9     0.000000     0.167360     3
  SG2R50   CG2R57   CG3C50    CG331     9     0.000000     7.405680     2
  SG2R50   CG2R57   CG3C50    CG331     9     0.000000     0.209200     3
  SG2R50   CG2R57   CG3C50   NG2R53     9     0.000000     0.669440     1
  SG2R50   CG2R57   CG3C50   NG2R53     9     0.000000     0.000000     2
  SG2R50   CG2R57   CG3C51   NG3C51     9   180.000000     5.104480     2
  SG2R50   CG2R57   CG3C51   NG3C51     9   180.000000     2.845120     3
  SG2R50   CG2R57   CG3C51   OG3C51     9   180.000000     2.594080     2
  SG2R50   CG2R57   CG3C51   OG3C51     9   180.000000     2.635920     3
  SG2R50   CG2R57   CG3C51     HGA1     9     0.000000     0.000000     3
  SG2R50   CG2R57   CG3RC1   CG3C51     9   180.000000     1.673600     3
  SG2R50   CG2R57   CG3RC1   CG3C52     9   180.000000     0.627600     3
  SG2R50   CG2R57   CG3RC1   CG3C52     9   180.000000     0.502080     6
  SG2R50   CG2R57   NG2R50   CG2R51     9   180.000000    43.973840     2
  SG2R50   CG2R57   NG2R50   CG2RC0     9   180.000000    38.827520     2
  SG2R50   CG2RC0   CG2RC0   SG2R50     9     0.000000     0.000000     2
  SG2R50   CG2RC0   NG2R61   CG2R64     9     0.000000     0.000000     2
  SG2R50   CG2RC0   NG2R61     HGP1     9     0.000000     5.188160     2
  SG2R50   CG2RC0   NG2R62   CG2R64     9   180.000000    12.008080     2
  SG2R50   CG2RC0   NG2RC0   CG2R51     9     0.000000     0.000000     2
  SG2R50   CG2RC0   NG2RC0   CG2R63     9   180.000000     1.966480     2
  OG3C51   CG251O   CG2DC1   CG2R61     9   180.000000    27.447040     2
  OG3C51   CG251O   CG2DC1     HGA4     9   180.000000    15.397120     2
  OG3C51   CG251O   CG2DC3     HGA5     9   180.000000    26.484720     2
  OG3C51   CG251O   CG2RC0   CG2R61     9   180.000000     4.351360     2
  OG3C51   CG251O   CG2RC0   CG2RC0     9   180.000000    21.547600     2
  OG3C51   CG251O   NG2R53   CG2R53     9     0.000000     1.464400     2
  OG3C51   CG251O   NG2R53     HGP1     9     0.000000     0.000000     2
  OG3C51   CG252O   CG2DC2   CG2R61     9   180.000000    27.447040     2
  OG3C51   CG252O   CG2DC2     HGA4     9   180.000000    15.397120     2
  OG3C51   CG252O   CG2DC3     HGA5     9   180.000000    26.484720     2
  OG3C51   CG252O   CG2RC0   CG2R61     9   180.000000     4.351360     2
  OG3C51   CG252O   CG2RC0   CG2RC0     9   180.000000    21.547600     2
  OG3C51   CG252O   NG2R53   CG2R53     9     0.000000     1.464400     2
  OG3C51   CG252O   NG2R53     HGP1     9     0.000000     0.000000     2
  OG3C51    CG2O4   CG3C41   CG3C41     9   180.000000     0.429278     3
  OG3C51    CG2O4   CG3C41     HGA2     9   180.000000     0.511703     3
  OG3C51   CG2R51   CG2R51   OG3C51     9     0.000000     0.251040     2
  OG3C51   CG2R51   CG2R51    HGR51     9   180.000000    15.480800     2
  OG3C51   CG2R51    CG314    CG2O3     9   180.000000     2.561026     2
  OG3C51   CG2R51    CG314    NG3P3     9     0.000000     0.190790     3
  OG3C51   CG2R51    CG314     HGA1     9     0.000000     0.524255     3
  OG3C51   CG2R51    CG331     HGA3     9     0.000000     1.172357     3
  OG3C51   CG2R51   NG2R51   CG3C52     9   180.000000    23.932480     2
  OG3C51   CG2R51   NG2R51   NG2R50     9   180.000000    26.652080     2
  OG3C51   CG2R53   CG2RC0   CG2R66     9     0.000000     0.000000     1
  OG3C51   CG2R53   CG2RC0   CG2R66     9     0.000000     0.000000     2
  OG3C51   CG2R53   CG2RC0   CG2RC0     9     0.000000    15.062400     1
  OG3C51   CG2R53   CG2RC0   CG2RC0     9     0.000000     0.627600     2
  OG3C51   CG2R53    CG331     HGA3     9     0.000000     0.000000     3
  OG3C51   CG2R53   CG3C50   CG3C52     9   180.000000     0.878640     2
  OG3C51   CG2R53   CG3C50   CG3C52     9     0.000000     2.886960     6
  OG3C51   CG2R53   CG3C50   NG3C51     9   180.000000     2.552240     2
  OG3C51   CG2R53   CG3C50   NG3C51     9   180.000000     5.104480     6
  OG3C51   CG2R53   CG3C51    CG2O3     9     0.000000     5.146320     2
  OG3C51   CG2R53   CG3C51    CG2O3     9     0.000000     2.092000     3
  OG3C51   CG2R53   CG3C51    CG2O3     9     0.000000     0.627600     4
  OG3C51   CG2R53   CG3C51    CG321     9   180.000000     0.543920     2
  OG3C51   CG2R53   CG3C51    CG321     9     0.000000     1.631760     4
  OG3C51   CG2R53   CG3C51    CG331     9   180.000000     1.046000     2
  OG3C51   CG2R53   CG3C51    CG331     9   180.000000     3.305360     3
  OG3C51   CG2R53   CG3C51   CG3C51     9     0.000000     9.916080     2
  OG3C51   CG2R53   CG3C51   CG3C52     9     0.000000     9.916080     2
  OG3C51   CG2R53   CG3C51   CG3RC1     9     0.000000     9.916080     2
  OG3C51   CG2R53   CG3C51    NG321     9     0.000000     1.380720     2
  OG3C51   CG2R53   CG3C51    NG321     9     0.000000     7.991440     3
  OG3C51   CG2R53   CG3C51   NG3C51     9   180.000000     2.761440     2
  OG3C51   CG2R53   CG3C51   NG3C51     9   180.000000     0.334720     6
  OG3C51   CG2R53   CG3C51   OG3C51     9     0.000000     0.334720     2
  OG3C51   CG2R53   CG3C51     HGA1     9   180.000000     0.000000     3
  OG3C51   CG2R53   CG3C52   CG2R51     9     0.000000     0.916296     3
  OG3C51   CG2R53   CG3C52   CG2R51     9     0.000000     1.209176     4
  OG3C51   CG2R53   CG3C52   CG3C51     9     0.000000     9.916080     2
  OG3C51   CG2R53   CG3C52   CG3C52     9     0.000000     9.916080     2
  OG3C51   CG2R53   CG3C52   CG3RC1     9     0.000000     9.916080     2
  OG3C51   CG2R53   CG3C52     HGA2     9   180.000000     0.000000     3
  OG3C51   CG2R53   NG2R50   CG251O     9   180.000000    69.077840     2
  OG3C51   CG2R53   NG2R50   CG252O     9   180.000000    69.077840     2
  OG3C51   CG2R53   NG2R50   CG2RC0     9   180.000000    46.860800     2
  OG3C51   CG2R53   NG2R50   CG3C51     9   180.000000    52.676560     2
  OG3C51   CG2R53   NG2R50   CG3C52     9   180.000000    20.961840     2
  OG3C51   CG2R53   NG2R50   NG2R50     9   180.000000    18.493280     2
  OG3C51   CG2R53   NG2R51   CG2RC0     9   180.000000     6.987280     2
  OG3C51   CG2R53   NG2R51   CG3C52     9   180.000000     5.313680     2
  OG3C51   CG2R53   NG2R53   CG3C52     9   180.000000     4.937120     2
  OG3C51   CG2R53   NG2R53     HGP1     9   180.000000     2.803280     2
  OG3C51   CG2RC0   CG2RC0   OG3C51     9   180.000000    32.216800     2
  OG3C51   CG2RC0   NG2R62   CG2R63     9   180.000000    33.472000     2
  OG3C51   CG3C41   CG3C41   OG3C51     9     0.000000    20.501600     3
  OG3C51   CG3C41   CG3C41   OG3C51     9   180.000000     0.334720     4
  OG3C51   CG3C41   CG3C41     HGA2     9     0.000000     0.794960     3
  OG3C51   CG3C41   CG3C52   NG2R53     9     0.000000     1.338880     1
  OG3C51   CG3C41   CG3C52   NG2R53     9     0.000000     0.251040     2
  OG3C51   CG3C41   CG3C52   NG2R53     9     0.000000     6.568880     3
  OG3C51   CG3C41   CG3C52     HGA2     9     0.000000     0.000000     3
  OG3C51   CG3C41   NG2R50   CG2R53     9     0.000000     0.292880     2
  OG3C51   CG3C41   NG2R50   CG2R53     9   180.000000     6.861760     3
  OG3C51   CG3C41   NG3C51    CG331     9     0.000000     3.807440     1
  OG3C51   CG3C41   NG3C51    CG331     9   180.000000     0.251040     3
  OG3C51   CG3C41   NG3C51   CG3C52     9   180.000000     0.000000     1
  OG3C51   CG3C41   NG3C51   CG3C52     9   180.000000     0.000000     3
  OG3C51   CG3C41   NG3C51   CG3C52     9   180.000000     5.146320     4
  OG3C51   CG3C50   CG3C50   OG3C51     9   180.000000     2.635920     3
  OG3C51   CG3C50   CG3C50   OG3C61     9     0.000000     4.727920     3
  OG3C51   CG3C50   CG3C50   OG3C61     9   180.000000     0.167360     4
  OG3C51   CG3C50   CG3C50   OG3C61     9     0.000000     0.878640     5
  OG3C51   CG3C50   CG3C50   OG3C61     9   180.000000     0.711280     6
  OG3C51   CG3C50   CG3C51    CG321     9     0.000000     0.251040     3
  OG3C51   CG3C50   CG3C51    CG321     9   180.000000     1.297040     4
  OG3C51   CG3C50   CG3C51    CG331     9   180.000000     2.050160     2
  OG3C51   CG3C50   CG3C51    CG331     9     0.000000     0.041840     3
  OG3C51   CG3C50   CG3C51   CG3C52     9     0.000000     0.000000     3
  OG3C51   CG3C50   CG3C51   OG3C51     9     0.000000     0.000000     3
  OG3C51   CG3C50   CG3C51   OG3C51     9   180.000000     0.167360     4
  OG3C51   CG3C50   CG3C51     HGA1     9     0.000000     0.794960     3
  OG3C51   CG3C50   CG3C52   CG2R51     9     0.000000     0.000000     2
  OG3C51   CG3C50   CG3C52   CG2R51     9     0.000000     1.087840     3
  OG3C51   CG3C50   CG3C52   CG3C50     9     0.000000     0.000000     3
  OG3C51   CG3C50   CG3C52   CG3C51     9     0.000000     0.000000     3
  OG3C51   CG3C50   CG3C52   CG3C52     9     0.000000     0.000000     3
  OG3C51   CG3C50   CG3C52   NG3C51     9   180.000000     8.493520     3
  OG3C51   CG3C50   CG3C52   NG3C51     9     0.000000     1.255200     6
  OG3C51   CG3C50   CG3C52     HGA2     9     0.000000     0.794960     3
  OG3C51   CG3C50   CG3RC1    CG321     9   180.000000     0.543920     2
  OG3C51   CG3C50   CG3RC1    CG321     9   180.000000     7.405680     3
  OG3C51   CG3C50   CG3RC1    CG321     9     0.000000     0.000000     4
  OG3C51   CG3C50   CG3RC1   CG3C52     9     0.000000     1.338880     2
  OG3C51   CG3C50   CG3RC1   CG3C52     9     0.000000     0.041840     3
  OG3C51   CG3C50   CG3RC1     HGA1     9     0.000000     0.000000     3
  OG3C51   CG3C50    OG311     HGP1     9     0.000000     6.317840     1
  OG3C51   CG3C50    OG311     HGP1     9     0.000000    11.631520     2
  OG3C51   CG3C50    OG311     HGP1     9     0.000000     2.133840     3
  OG3C51   CG3C50   OG3C51   CG2R53     9     0.000000     0.083680     2
  OG3C51   CG3C50   OG3C51   CG2R53     9     0.000000     5.062640     3
  OG3C51   CG3C50   OG3C51   CG2RC0     9     0.000000     0.041840     2
  OG3C51   CG3C50   OG3C51   CG2RC0     9     0.000000     7.029120     3
  OG3C51   CG3C50   OG3C51   CG3C51     9   180.000000     0.083680     2
  OG3C51   CG3C50   OG3C51   CG3C51     9     0.000000     4.978960     3
  OG3C51   CG3C50   OG3C51   CG3C52     9     0.000000     2.510400     2
  OG3C51   CG3C50   OG3C51   CG3C52     9   180.000000     1.464400     3
  OG3C51   CG3C50   OG3C51   CG3RC1     9   180.000000     1.338880     3
  OG3C51   CG3C50   OG3C51   CG3RC1     9     0.000000     1.464400     6
  OG3C51   CG3C51   CG3C51   OG3C51     9     0.000000     1.087840     3
  OG3C51   CG3C51   CG3C51     FGA1     9     0.000000     0.836800     3
  OG3C51   CG3C51   CG3C51     HGA1     9     0.000000     0.794960     3
  OG3C51   CG3C51   CG3C51     HGA6     9     0.000000     0.794960     3
  OG3C51   CG3C51   CG3C52    CG2O5     9   180.000000     1.548080     3
  OG3C51   CG3C51   CG3C52    CG2O5     9     0.000000     3.723760     4
  OG3C51   CG3C51   CG3C52   CG2R51     9   180.000000     1.046000     3
  OG3C51   CG3C51   CG3C52   CG2RC0     9   180.000000     1.046000     3
  OG3C51   CG3C51   CG3C52   CG3C51     9     0.000000     0.000000     3
  OG3C51   CG3C51   CG3C52   CG3C52     9     0.000000     0.000000     3
  OG3C51   CG3C51   CG3C52   CG3RC1     9     0.000000     0.000000     3
  OG3C51   CG3C51   CG3C52   NG2R51     9   180.000000     4.978960     2
  OG3C51   CG3C51   CG3C52   NG2R51     9     0.000000    11.464160     3
  OG3C51   CG3C51   CG3C52   OG3C51     9     0.000000     1.087840     3
  OG3C51   CG3C51   CG3C52    SG311     9     0.000000     0.585760     3
  OG3C51   CG3C51   CG3C52    SG311     9     0.000000     1.464400     4
  OG3C51   CG3C51   CG3C52     HGA2     9     0.000000     0.794960     3
  OG3C51   CG3C51   CG3C53   CG3C52     9     0.000000     0.000000     3
  OG3C51   CG3C51   CG3C53    NG3P3     9     0.000000    21.087360     3
  OG3C51   CG3C51   CG3C53     HGA1     9     0.000000     0.794960     3
  OG3C51   CG3C51   CG3RC1   CG3RC1     9   180.000000     1.966480     2
  OG3C51   CG3C51   CG3RC1   CG3RC1     9     0.000000     3.556400     6
  OG3C51   CG3C51   CG3RC1   OG3C51     9     0.000000     2.050160     3
  OG3C51   CG3C51   CG3RC1   OG3C51     9     0.000000     1.129680     6
  OG3C51   CG3C51   CG3RC1     HGA1     9     0.000000     0.000000     3
  OG3C51   CG3C51   NG2R50   NG2R50     9     0.000000     0.000000     2
  OG3C51   CG3C51   NG2R50   NG2R50     9     0.000000     4.853440     3
  OG3C51   CG3C51   NG2R51   CG2R51     9   180.000000     2.510400     1
  OG3C51   CG3C51   NG2R51   CG2R51     9     0.000000     0.836800     3
  OG3C51   CG3C51   NG2R51   CG2R53     9     0.000000     4.602400     1
  OG3C51   CG3C51   NG2R51   CG2RC0     9   180.000000     4.602400     1
  OG3C51   CG3C51   NG2R51   CG2RC0     9     0.000000     0.836800     3
  OG3C51   CG3C51   NG2R61   CG2R62     9     0.000000     4.184000     1
  OG3C51   CG3C51   NG2R61   CG2R63     9     0.000000     0.000000     3
  OG3C51   CG3C51    NG301   CG2D1O     9     0.000000     0.000000     3
  OG3C51   CG3C51    NG301   CG2D2O     9     0.000000     0.000000     3
  OG3C51   CG3C51   NG3C51   CG2RC0     9   180.000000    18.116720     2
  OG3C51   CG3C51   NG3C51   CG2RC0     9     0.000000     6.819920     3
  OG3C51   CG3C51   NG3C51     HGP1     9     0.000000     3.096160     1
  OG3C51   CG3C51   NG3C51     HGP1     9   180.000000     1.757280     2
  OG3C51   CG3C51   NG3C51     HGP1     9   180.000000     7.112800     3
  OG3C51   CG3C51   NG3C51     HGP1     9   180.000000     0.418400     6
  OG3C51   CG3C51    OG301   CG3C51     9     0.000000     2.510400     2
  OG3C51   CG3C51    OG301   CG3C51     9     0.000000     0.836800     3
  OG3C51   CG3C51    OG311     HGP1     9     0.000000     6.443360     1
  OG3C51   CG3C51    OG311     HGP1     9     0.000000     4.435040     2
  OG3C51   CG3C51    OG311     HGP1     9     0.000000     3.556400     3
  OG3C51   CG3C51   OG3C51   CG3C50     9   180.000000     6.903600     3
  OG3C51   CG3C51   OG3C51   CG3C51     9   180.000000     6.903600     3
  OG3C51   CG3C51    SG311   CG2D1O     9     0.000000     0.930103     1
  OG3C51   CG3C51    SG311   CG2D1O     9     0.000000     3.952206     3
  OG3C51   CG3C51    SG311   CG2D2O     9     0.000000     0.930103     1
  OG3C51   CG3C51    SG311   CG2D2O     9     0.000000     3.952206     3
  OG3C51   CG3C51    SG311   CG3C52     9     0.000000     0.418400     1
  OG3C51   CG3C51    SG311   CG3C52     9     0.000000     0.292880     2
  OG3C51   CG3C51    SG311   CG3C52     9     0.000000     5.313680     3
  OG3C51   CG3C52   CG3C52   OG3C51     9     0.000000     1.087840     3
  OG3C51   CG3C52   CG3C52     HGA2     9     0.000000     0.794960     3
  OG3C51   CG3C52   CG3C53   CG3C51     9     0.000000     0.000000     3
  OG3C51   CG3C52   CG3C53   NG2R52     9     0.000000    11.213120     3
  OG3C51   CG3C52   CG3C53     HGA1     9     0.000000     0.794960     3
  OG3C51   CG3C52   CG3RC1   CG2RC0     9   180.000000     5.104480     2
  OG3C51   CG3C52   CG3RC1   CG2RC0     9   180.000000     1.380720     3
  OG3C51   CG3C52   CG3RC1    CG321     9   180.000000     2.510400     2
  OG3C51   CG3C52   CG3RC1    CG321     9   180.000000     1.924640     3
  OG3C51   CG3C52   CG3RC1    CG321     9   180.000000     1.715440     4
  OG3C51   CG3C52   CG3RC1   CG3C31     9   180.000000     0.878640     2
  OG3C51   CG3C52   CG3RC1   CG3C31     9     0.000000    11.045760     3
  OG3C51   CG3C52   CG3RC1   CG3C31     9     0.000000     2.133840     4
  OG3C51   CG3C52   CG3RC1   CG3RC1     9   180.000000     1.422560     2
  OG3C51   CG3C52   CG3RC1   CG3RC1     9     0.000000     9.079280     3
  OG3C51   CG3C52   CG3RC1   CG3RC1     9     0.000000     0.585760     6
  OG3C51   CG3C52   CG3RC1   OG3C51     9     0.000000    14.141920     3
  OG3C51   CG3C52   CG3RC1   OG3C51     9     0.000000     2.970640     6
  OG3C51   CG3C52   CG3RC1     HGA1     9     0.000000     0.000000     3
  OG3C51   CG3C52   OG3C51   CG2R51     9     0.000000     2.092000     3
  OG3C51   CG3C52   OG3C51   CG2R53     9     0.000000     0.000000     2
  OG3C51   CG3C52   OG3C51   CG2R53     9     0.000000     4.602400     3
  OG3C51   CG3C52   OG3C51   CG2RC0     9     0.000000     2.092000     3
  OG3C51   CG3C52   OG3C51   CG3C51     9   180.000000     6.903600     3
  OG3C51   CG3C52   OG3C51   CG3C52     9   180.000000     6.903600     3
  OG3C51   CG3C52   OG3C51   CG3RC1     9     0.000000     0.041840     3
  OG3C51   CG3C52   OG3C51   CG3RC1     9     0.000000     8.116960     4
  OG3C51   CG3C53   NG2R61   CG2R62     9     0.000000     4.184000     1
  OG3C51   CG3RC1   CG3RC1   OG3C51     9   180.000000    11.464160     2
  OG3C51   CG3RC1   CG3RC1   OG3C51     9   180.000000     3.765600     3
  OG3C51   CG3RC1   CG3RC1   OG3C51     9     0.000000     2.426720     6
  OG3C51   CG3RC1   CG3RC1     HGA1     9     0.000000     0.627600     3
  OG3C51   CG3RC1    OG311     HGP1     9     0.000000     8.242480     1
  OG3C51   CG3RC1    OG311     HGP1     9     0.000000     1.087840     2
  OG3C51   CG3RC1    OG311     HGP1     9   180.000000     0.376560     3
  OG3C51   CG3RC1   OG3C51   CG3C50     9     0.000000     0.000000     3
  OG3C51   CG3RC1   OG3C51   CG3C51     9     0.000000     0.000000     3
  OG3C51   CG3RC1   OG3C51   CG3C52     9     0.000000     0.000000     3
  CG2RC0   CG251O   CG2DC3     HGA5     9   180.000000    16.317600     2
  CG2RC0   CG251O   OG3C51   CG3C50     9     0.000000     0.000000     2
  CG2RC0   CG252O   CG2DC3     HGA5     9   180.000000    16.317600     2
  CG2RC0   CG252O   OG3C51   CG3C50     9     0.000000     0.000000     2
  CG2RC0   CG25C1   CG25C2   CG2RC0     9   180.000000    10.711040     2
  CG2RC0   CG25C1   CG25C2    OG2D3     9   180.000000     4.142160     2
  CG2RC0   CG25C1   CG2D1O    CG2O3     9   180.000000     3.807440     2
  CG2RC0   CG25C1   CG2D1O    OG312     9   180.000000    13.765360     2
  CG2RC0   CG25C1   CG2DC1    CG1N1     9   180.000000    26.568400     2
  CG2RC0   CG25C1   CG2DC1   CG2R52     9   180.000000    12.217280     2
  CG2RC0   CG25C1   CG2DC1     HGA4     9   180.000000    16.317600     2
  CG2RC0   CG25C1   CG2DC3     HGA5     9   180.000000    18.409600     2
  CG2RC0   CG25C1   CG2R53   NG2R51     9   180.000000     5.020800     2
  CG2RC0   CG25C1   CG2R53    OG2D1     9   180.000000     5.020800     2
  CG2RC0   CG25C1    NG2D1    OG301     9   180.000000    33.764880     2
  CG2RC0   CG25C2   CG2D2O    CG2O3     9   180.000000     3.807440     2
  CG2RC0   CG25C2   CG2D2O    OG312     9   180.000000    13.765360     2
  CG2RC0   CG25C2   CG2DC2    CG1N1     9   180.000000    26.568400     2
  CG2RC0   CG25C2   CG2DC2   CG2R52     9   180.000000    12.217280     2
  CG2RC0   CG25C2   CG2DC2     HGA4     9   180.000000    16.317600     2
  CG2RC0   CG25C2   CG2DC3     HGA5     9   180.000000    18.409600     2
  CG2RC0   CG25C2   CG2R53   NG2R51     9   180.000000     5.020800     2
  CG2RC0   CG25C2   CG2R53    OG2D1     9   180.000000     5.020800     2
  CG2RC0   CG25C2    NG2D1    OG301     9   180.000000    33.764880     2
  CG2RC0   CG2DC1    NG2D1   CG2D1O     9   180.000000    50.208000     2
  CG2RC0   CG2DC2    NG2D1   CG2D2O     9   180.000000    50.208000     2
  CG2RC0    CG2O4    CG2O4   CG2RC0     9   180.000000     0.001255     2
  CG2RC0    CG2O4    CG2O4    OG2D3     9   180.000000     0.028870     2
  CG2RC0   CG2R51   CG2R51    CG301     9   180.000000    17.991200     2
  CG2RC0   CG2R51   CG2R51    CG311     9   180.000000    17.991200     2
  CG2RC0   CG2R51   CG2R51    CG314     9   180.000000    17.991200     2
  CG2RC0   CG2R51   CG2R51    CG321     9   180.000000    17.991200     2
  CG2RC0   CG2R51   CG2R51    CG331     9   180.000000    10.543680     2
  CG2RC0   CG2R51   CG2R51   CG3C50     9   180.000000    28.869600     2
  CG2RC0   CG2R51   CG2R51   CG3C51     9   180.000000    28.869600     2
  CG2RC0   CG2R51   CG2R51   CG3C52     9   180.000000    28.869600     2
  CG2RC0   CG2R51   CG2R51    NG2O1     9   180.000000    26.024480     2
  CG2RC0   CG2R51   CG2R51   NG2R51     9   180.000000    16.736000     2
  CG2RC0   CG2R51   CG2R51   NG2R52     9   180.000000    17.363600     2
  CG2RC0   CG2R51   CG2R51   NG2R61     9   180.000000    11.840720     2
  CG2RC0   CG2R51   CG2R51   OG2R50     9   180.000000    35.564000     2
  CG2RC0   CG2R51   CG2R51    OG311     9   180.000000    20.424196     2
  CG2RC0   CG2R51   CG2R51   SG2R50     9   180.000000    35.564000     2
  CG2RC0   CG2R51   CG2R51    HGR51     9   180.000000    11.715200     2
  CG2RC0   CG2R51   CG2R51    HGR52     9   180.000000    11.715200     2
  CG2RC0   CG2R51   CG2R52    CG331     9   180.000000    12.552000     2
  CG2RC0   CG2R51   CG2R52   NG2R50     9   180.000000    35.564000     2
  CG2RC0   CG2R51   CG2R52    HGR52     9   180.000000    15.899200     2
  CG2RC0   CG2R51   CG2R57   CG2R57     9   180.000000     8.786400     2
  CG2RC0   CG2R51   CG2R57   CG3C51     9   180.000000    14.978720     2
  CG2RC0   CG2R51   CG2R57   CG3C52     9   180.000000    22.509920     2
  CG2RC0   CG2R51   CG2R57   CG3C53     9   180.000000     5.062640     2
  CG2RC0   CG2R51   CG2R57   CG3RC1     9   180.000000    25.187680     2
  CG2RC0   CG2R51   CG2R57   NG2R51     9   180.000000    26.442880     2
  CG2RC0   CG2R51   CG2R57   OG2R50     9   180.000000    19.622960     2
  CG2RC0   CG2R51    CG302     FGA3     9   180.000000     0.000000     2
  CG2RC0   CG2R51    CG302     FGA3     9     0.000000     1.548080     3
  CG2RC0   CG2R51    CG311    CG331     9   180.000000     1.046000     2
  CG2RC0   CG2R51    CG311    OG311     9   180.000000     0.212129     1
  CG2RC0   CG2R51    CG311    OG311     9   180.000000     3.857648     2
  CG2RC0   CG2R51    CG311    OG311     9     0.000000     0.011715     3
  CG2RC0   CG2R51    CG311     HGA1     9     0.000000     0.836800     3
  CG2RC0   CG2R51    CG321    CG2O1     9     0.000000     0.251040     2
  CG2RC0   CG2R51    CG321    CG2O1     9     0.000000     0.083680     3
  CG2RC0   CG2R51    CG321   CG2R51     9   180.000000     1.506240     1
  CG2RC0   CG2R51    CG321   CG2R51     9     0.000000     0.209200     2
  CG2RC0   CG2R51    CG321   CG2R51     9   180.000000     0.794960     3
  CG2RC0   CG2R51    CG321    CG311     9   180.000000     0.376560     2
  CG2RC0   CG2R51    CG321    CG311     9     0.000000     2.384880     3
  CG2RC0   CG2R51    CG321    CG314     9   180.000000     0.376560     2
  CG2RC0   CG2R51    CG321    CG314     9     0.000000     2.384880     3
  CG2RC0   CG2R51    CG321    CG321     9   180.000000     0.376560     2
  CG2RC0   CG2R51    CG321    CG321     9     0.000000     2.384880     3
  CG2RC0   CG2R51    CG321    CG331     9   180.000000     1.046000     2
  CG2RC0   CG2R51    CG321    NG2S0     9   180.000000     2.510400     1
  CG2RC0   CG2R51    CG321    NG2S0     9     0.000000     0.920480     2
  CG2RC0   CG2R51    CG321    NG2S0     9     0.000000     2.133840     3
  CG2RC0   CG2R51    CG321    NG311     9     0.000000     2.259360     1
  CG2RC0   CG2R51    CG321    NG311     9     0.000000     1.924640     3
  CG2RC0   CG2R51    CG321    NG321     9     0.000000     2.259360     1
  CG2RC0   CG2R51    CG321    NG321     9     0.000000     1.924640     3
  CG2RC0   CG2R51    CG321    SG311     9   180.000000     6.024960     1
  CG2RC0   CG2R51    CG321    SG311     9   180.000000     0.502080     2
  CG2RC0   CG2R51    CG321     HGA2     9     0.000000     0.836800     3
  CG2RC0   CG2R51    CG324    NG3P2     9   180.000000     2.928800     1
  CG2RC0   CG2R51    CG324    NG3P2     9     0.000000     2.510400     2
  CG2RC0   CG2R51    CG324    NG3P2     9     0.000000     0.627600     3
  CG2RC0   CG2R51    CG324    NG3P3     9   180.000000     0.376560     2
  CG2RC0   CG2R51    CG324    NG3P3     9     0.000000     2.384880     3
  CG2RC0   CG2R51    CG324     HGA2     9     0.000000     1.673600     3
  CG2RC0   CG2R51    CG331     HGA3     9     0.000000     0.836800     3
  CG2RC0   CG2R51   CG3C52   CG3C51     9   180.000000     0.209200     3
  CG2RC0   CG2R51   CG3C52     HGA2     9     0.000000     0.000000     3
  CG2RC0   CG2R51   NG2R50   CG2R53     9   180.000000    58.576000     2
  CG2RC0   CG2R51   NG2R50   CG2R57     9   180.000000    22.593600     2
  CG2RC0   CG2R51   NG2R51   CG2R51     9   180.000000    25.104000     2
  CG2RC0   CG2R51   NG2R51    CG331     9   180.000000    46.024000     2
  CG2RC0   CG2R51   NG2R51   NG2R50     9   180.000000    41.840000     2
  CG2RC0   CG2R51   NG2R51     HGP1     9   180.000000     4.184000     2
  CG2RC0   CG2R51   NG2R52   CG2R53     9   180.000000    50.208000     2
  CG2RC0   CG2R51   NG2R52    CG334     9   180.000000     7.112800     2
  CG2RC0   CG2R51   NG2R52     HGP2     9   180.000000     5.857600     2
  CG2RC0   CG2R51   NG2RC0   CG2R62     9   180.000000    12.552000     2
  CG2RC0   CG2R51   NG2RC0   CG2R67     9   180.000000    11.506000     2
  CG2RC0   CG2R51   OG2R50   NG2R50     9   180.000000    35.564000     2
  CG2RC0   CG2R51    OG311     HGP1     9   180.000000     0.962320     1
  CG2RC0   CG2R51    OG311     HGP1     9   180.000000     0.000000     2
  CG2RC0   CG2R51    SG3O1    OG2P1     9     0.000000     0.125520     1
  CG2RC0   CG2R51    SG3O1    OG2P1     9   180.000000     0.334720     2
  CG2RC0   CG2R51    SG3O1    OG2P1     9     0.000000     1.213360     3
  CG2RC0   CG2R51    SG3O1    OG2P1     9     0.000000     0.669440     6
  CG2RC0   CG2R52   CG2R61   CG2R61     9   180.000000     2.217520     2
  CG2RC0   CG2R52   CG2R61   CG2R61     9   180.000000     3.891120     3
  CG2RC0   CG2R52   CG2R61   CG2R61     9   180.000000     1.338880     4
  CG2RC0   CG2R52   CG2R61   NG2R62     9     0.000000     0.125520     2
  CG2RC0   CG2R52   CG2R61   NG2R62     9   180.000000     4.476880     3
  CG2RC0   CG2R52   CG2R61   NG2R62     9     0.000000     1.422560     4
  CG2RC0   CG2R52    CG331     HGA3     9     0.000000     0.836800     3
  CG2RC0   CG2R52   NG2R50   NG2R50     9   180.000000    35.564000     2
  CG2RC0   CG2R52   NG2R50   NG2R51     9   180.000000    56.484000     2
  CG2RC0   CG2R52   NG2R50   OG2R50     9   180.000000    50.208000     2
  CG2RC0   CG2R52   NG2R50   SG2R50     9   180.000000    35.564000     2
  CG2RC0   CG2R52   NG2R50    SG3O2     9   180.000000    27.698080     2
  CG2RC0   CG2R52    OG301    CG331     9   180.000000    10.208960     2
  CG2RC0   CG2R52    OG301    CG331     9     0.000000     1.004160     4
  CG2RC0   CG2R53    NG2O1    OG2N1     9   180.000000     3.598240     2
  CG2RC0   CG2R53   NG2R50   NG2R51     9   180.000000    12.761200     2
  CG2RC0   CG2R53   NG2R51    CG331     9   180.000000     0.000000     2
  CG2RC0   CG2R53   NG2R51   NG2R51     9   180.000000    10.460000     2
  CG2RC0   CG2R53   NG2R51   SG2R50     9   180.000000     5.815760     1
  CG2RC0   CG2R53   NG2R51   SG2R50     9   180.000000     4.058480     2
  CG2RC0   CG2R53   OG3C51   CG3C52     9   180.000000     5.188160     2
  CG2RC0   CG2R53   OG3C51   CG3C52     9   180.000000     9.497680     3
  CG2RC0   CG2R57   CG2R57   NG2R50     9   180.000000     9.455840     2
  CG2RC0   CG2R57   CG2R57   NG2R50     9   180.000000     0.502080     4
  CG2RC0   CG2R57   CG2R57   NG2R50     9     0.000000     3.849280     6
  CG2RC0   CG2R57   CG2R57   NG2R51     9   180.000000     0.000000     2
  CG2RC0   CG2R57   CG2R57   NG2R51     9   180.000000     3.891120     4
  CG2RC0   CG2R57   CG2R57   NG2R51     9   180.000000     0.418400     6
  CG2RC0   CG2R57   CG2R57   NG3C51     9   180.000000     0.334720     2
  CG2RC0   CG2R57   CG2R57   NG3C51     9   180.000000     2.970640     4
  CG2RC0   CG2R57   CG2R57   OG2R50     9   180.000000     8.660880     2
  CG2RC0   CG2R57   CG2R57   OG2R50     9     0.000000     1.255200     4
  CG2RC0   CG2R57   CG3C51   CG3C52     9     0.000000     1.589920     3
  CG2RC0   CG2R57   CG3C51     HGA1     9     0.000000     0.000000     3
  CG2RC0   CG2R57   CG3C53   CG3C52     9     0.000000     5.062640     3
  CG2RC0   CG2R57   CG3C53    NG3P2     9   180.000000     1.548080     3
  CG2RC0   CG2R57   CG3C53     HGA1     9     0.000000     0.000000     3
  CG2RC0   CG2R57   NG2R50   CG2R53     9   180.000000    22.719120     2
  CG2RC0   CG2R57   NG2R50   NG2R51     9   180.000000    28.995120     2
  CG2RC0   CG2R61   CG2R61   CG2RC0     9   180.000000    12.552000     2
  CG2RC0   CG2R61   CG2R61    CG314     9   180.000000    12.970400     2
  CG2RC0   CG2R61   CG2R61    CG331     9   180.000000    12.970400     2
  CG2RC0   CG2R61   CG2R61   CG3C50     9   180.000000    10.292640     2
  CG2RC0   CG2R61   CG2R61    NG2O1     9     0.000000     9.581360     1
  CG2RC0   CG2R61   CG2R61    NG2O1     9   180.000000     7.154640     2
  CG2RC0   CG2R61   CG2R61    NG2O1     9     0.000000     4.351360     3
  CG2RC0   CG2R61   CG2R61   NG2R60     9   180.000000    11.673360     2
  CG2RC0   CG2R61   CG2R61   NG2R62     9   180.000000     5.020800     2
  CG2RC0   CG2R61   CG2R61    NG2S3     9   180.000000    20.920000     2
  CG2RC0   CG2R61   CG2R61   NG3C51     9   180.000000    12.970400     2
  CG2RC0   CG2R61   CG2R61    NG3N1     9   180.000000    12.970400     2
  CG2RC0   CG2R61   CG2R61    NG3P0     9   180.000000    17.572800     2
  CG2RC0   CG2R61   CG2R61    OG301     9   180.000000    12.970400     2
  CG2RC0   CG2R61   CG2R61    OG311     9   180.000000    12.970400     2
  CG2RC0   CG2R61   CG2R61    SG311     9   180.000000    18.828000     2
  CG2RC0   CG2R61   CG2R61    CLGR1     9   180.000000    12.552000     2
  CG2RC0   CG2R61   CG2R61    BRGR1     9   180.000000    12.970400     2
  CG2RC0   CG2R61   CG2R61    HGR61     9   180.000000    12.552000     2
  CG2RC0   CG2R61   CG2R61    HGR62     9   180.000000    10.041600     2
  CG2RC0   CG2R61   CG2R64   NG2R62     9   180.000000     5.020800     2
  CG2RC0   CG2R61   CG2R64    NG2S3     9   180.000000     8.368000     2
  CG2RC0   CG2R61   CG2R66   CG2R61     9   180.000000    12.970400     2
  CG2RC0   CG2R61   CG2R66     FGR1     9   180.000000    18.828000     2
  CG2RC0   CG2R61   CG2R67   CG2R61     9   180.000000    12.970400     2
  CG2RC0   CG2R61   CG2R67   CG2R67     9   180.000000    12.970400     2
  CG2RC0   CG2R61   CG2RC0   CG2R51     9   180.000000    16.736000     2
  CG2RC0   CG2R61   CG2RC0   CG2RC0     9   180.000000    12.552000     2
  CG2RC0   CG2R61   CG2RC0   CG3C52     9   180.000000     0.000000     2
  CG2RC0   CG2R61   CG2RC0   NG2R51     9   180.000000    12.552000     2
  CG2RC0   CG2R61   CG2RC0    NG2S0     9   180.000000    25.606080     2
  CG2RC0   CG2R61    CG301    CG331     9   180.000000     0.962320     2
  CG2RC0   CG2R61    CG311    CG331     9   180.000000     0.962320     2
  CG2RC0   CG2R61    CG311     HGA1     9   180.000000     0.418400     6
  CG2RC0   CG2R61    CG312     FGA2     9     0.000000     1.255200     2
  CG2RC0   CG2R61    CG312     HGA7     9     0.000000     0.836800     2
  CG2RC0   CG2R61    CG312     HGA7     9     0.000000     1.506240     3
  CG2RC0   CG2R61    CG314    CG331     9   180.000000     0.962320     2
  CG2RC0   CG2R61    CG314    NG3P3     9     0.000000     1.380720     2
  CG2RC0   CG2R61    CG314     HGA1     9   180.000000     0.418400     6
  CG2RC0   CG2R61    CG321    CG321     9   180.000000     0.962320     2
  CG2RC0   CG2R61    CG321    NG321     9   180.000000     4.184000     2
  CG2RC0   CG2R61    CG321     HGA2     9     0.000000     0.000000     6
  CG2RC0   CG2R61    CG324    NG3P3     9     0.000000     1.380720     2
  CG2RC0   CG2R61    CG324     HGA2     9     0.000000     0.000000     2
  CG2RC0   CG2R61    CG331     HGA3     9     0.000000     0.000000     6
  CG2RC0   CG2R61    NG2O1    OG2N1     9   180.000000     3.765600     2
  CG2RC0   CG2R61   NG2R51   CG2R53     9     0.000000     0.836800     1
  CG2RC0   CG2R61   NG2R51   CG2R53     9   180.000000     4.602400     2
  CG2RC0   CG2R61   NG2R51   CG2R53     9     0.000000     2.510400     3
  CG2RC0   CG2R61   NG2R51   NG2R50     9   180.000000     4.184000     2
  CG2RC0   CG2R61   NG2R60   CG2R61     9   180.000000    25.062160     2
  CG2RC0   CG2R61   NG2R61   NG2R62     9     0.000000     5.230000     2
  CG2RC0   CG2R61   NG2R61     HGP1     9   180.000000     4.184000     2
  CG2RC0   CG2R61   NG2R62   CG2R64     9   180.000000     9.204800     2
  CG2RC0   CG2R61   NG2R62   NG2R61     9   180.000000    23.430400     2
  CG2RC0   CG2R61    NG2S1    CG2O1     9   180.000000     5.020800     2
  CG2RC0   CG2R61    NG2S1     HGP1     9   180.000000     2.092000     2
  CG2RC0   CG2R61    NG2S3     HGP4     9   180.000000     5.648400     2
  CG2RC0   CG2R61   NG3C51   CG3C52     9   180.000000    12.384640     2
  CG2RC0   CG2R61   NG3C51   CG3C52     9     0.000000     2.928800     3
  CG2RC0   CG2R61   NG3C51   CG3C52     9     0.000000     0.209200     4
  CG2RC0   CG2R61    OG301    CG331     9   180.000000     6.610720     2
  CG2RC0   CG2R61    OG301    CG331     9   180.000000     0.836800     4
  CG2RC0   CG2R61    OG311     HGP1     9   180.000000     4.142160     2
  CG2RC0   CG2R61    SG3O1    OG2P1     9     0.000000     0.000000     6
  CG2RC0   CG2R61    SG3O2    CG331     9   180.000000     8.828240     1
  CG2RC0   CG2R61    SG3O2    CG331     9     0.000000     4.100320     2
  CG2RC0   CG2R61    SG3O2    CG331     9   180.000000     0.167360     3
  CG2RC0   CG2R61    SG3O2    OG2P1     9     0.000000     0.000000     6
  CG2RC0   CG2R62   CG2R62    CG321     9   180.000000    11.589680     2
  CG2RC0   CG2R62   CG2R62   NG2R61     9   180.000000    14.644000     2
  CG2RC0   CG2R62   CG2R62    HGR62     9   180.000000     4.184000     2
  CG2RC0   CG2R62   CG2R62    HGR63     9   180.000000     4.184000     2
  CG2RC0   CG2R62   CG2R63   NG2R61     9   180.000000     7.531200     2
  CG2RC0   CG2R62   CG2R63    OG2D4     9   180.000000     4.184000     2
  CG2RC0   CG2R62    CG321    CG321     9   180.000000     0.962320     2
  CG2RC0   CG2R62    CG321     HGA2     9     0.000000     0.251040     4
  CG2RC0   CG2R62    CG331     HGA3     9     0.000000     1.924640     3
  CG2RC0   CG2R62   NG2R60   CG2R62     9   180.000000     5.020800     2
  CG2RC0   CG2R62   NG2R61   CG2R62     9   180.000000    16.736000     2
  CG2RC0   CG2R62   NG2R61    CG324     9   180.000000    46.024000     2
  CG2RC0   CG2R62   NG2R61     HGP2     9   180.000000     4.184000     2
  CG2RC0   CG2R62   NG2R62   CG2R63     9   180.000000     8.368000     2
  CG2RC0   CG2R62    NG2S3     HGP4     9   180.000000     5.648400     2
  CG2RC0   CG2R63   NG2R61   CG2R61     9   180.000000     0.836800     2
  CG2RC0   CG2R63   NG2R61   CG2R62     9   180.000000     0.836800     2
  CG2RC0   CG2R63   NG2R61   CG2R63     9     0.000000    17.865680     2
  CG2RC0   CG2R63   NG2R61   CG2R64     9   180.000000     0.836800     2
  CG2RC0   CG2R63   NG2R61    CG331     9   180.000000    23.012000     2
  CG2RC0   CG2R63   NG2R61    OG312     9   180.000000    29.539040     2
  CG2RC0   CG2R63   NG2R61     HGP1     9   180.000000    15.062400     2
  CG2RC0   CG2R63   NG2R62   CG2R64     9   180.000000     1.673600     2
  CG2RC0   CG2R63   NG2RC0   CG2R51     9   180.000000     0.000000     2
  CG2RC0   CG2R63   NG2RC0   CG2RC0     9   180.000000     4.184000     2
  CG2RC0   CG2R63   OG3R60   CG2R64     9     0.000000     2.510400     2
  CG2RC0   CG2R64    NG2D1   CG2DC1     9   180.000000     6.401520     2
  CG2RC0   CG2R64    NG2D1   CG2DC1     9   180.000000     0.125520     3
  CG2RC0   CG2R64    NG2D1   CG2DC1     9     0.000000     2.803280     4
  CG2RC0   CG2R64    NG2D1   CG2DC2     9   180.000000     6.401520     2
  CG2RC0   CG2R64    NG2D1   CG2DC2     9   180.000000     0.125520     3
  CG2RC0   CG2R64    NG2D1   CG2DC2     9     0.000000     2.803280     4
  CG2RC0   CG2R64    NG2D1     HGP1     9   180.000000    28.660400     2
  CG2RC0   CG2R64    NG2P1   CG2R64     9   180.000000     7.531200     2
  CG2RC0   CG2R64    NG2P1    CG334     9   180.000000    23.012000     2
  CG2RC0   CG2R64    NG2P1     HGP2     9   180.000000    10.041600     2
  CG2RC0   CG2R64    NG2P1     HGP2     9   180.000000     2.928800     3
  CG2RC0   CG2R64   NG2R51   CG2R51     9     0.000000     0.836800     1
  CG2RC0   CG2R64   NG2R51   CG2R51     9   180.000000     4.602400     2
  CG2RC0   CG2R64   NG2R51   CG2R51     9     0.000000     2.510400     3
  CG2RC0   CG2R64   NG2R60   CG2R61     9   180.000000     5.020800     2
  CG2RC0   CG2R64   NG2R61   CG2R63     9   180.000000     2.510400     2
  CG2RC0   CG2R64   NG2R61   CG2R64     9   180.000000     2.510400     2
  CG2RC0   CG2R64   NG2R61    CG331     9   180.000000     0.000000     2
  CG2RC0   CG2R64   NG2R61     HGP1     9   180.000000     0.000000     2
  CG2RC0   CG2R64   NG2R62   CG2R64     9   180.000000     7.531200     2
  CG2RC0   CG2R64    NG2S0    CG2O1     9     0.000000     4.184000     1
  CG2RC0   CG2R64    NG2S0    CG2O1     9   180.000000     9.204800     2
  CG2RC0   CG2R64    NG2S0    CG2O1     9     0.000000     0.836800     3
  CG2RC0   CG2R64    NG2S0    CG2O6     9     0.000000     4.184000     1
  CG2RC0   CG2R64    NG2S0    CG2O6     9   180.000000     9.204800     2
  CG2RC0   CG2R64    NG2S0    CG2O6     9     0.000000     0.836800     3
  CG2RC0   CG2R64    NG2S0    CG331     9   180.000000     9.204800     2
  CG2RC0   CG2R64    NG2S1    CG2O1     9     0.000000     7.531200     1
  CG2RC0   CG2R64    NG2S1    CG2O1     9   180.000000     6.276000     2
  CG2RC0   CG2R64    NG2S1    CG2O6     9     0.000000     6.276000     1
  CG2RC0   CG2R64    NG2S1    CG2O6     9   180.000000     7.949600     2
  CG2RC0   CG2R64    NG2S1    CG2O6     9     0.000000     3.012480     3
  CG2RC0   CG2R64    NG2S1     HGP1     9   180.000000     2.092000     2
  CG2RC0   CG2R64    NG2S3     HGP4     9   180.000000     2.092000     2
  CG2RC0   CG2R64    NG301    CG321     9   180.000000    11.924400     2
  CG2RC0   CG2R64    NG301    CG321     9     0.000000     3.765600     4
  CG2RC0   CG2R64    NG301    CG331     9   180.000000    11.924400     2
  CG2RC0   CG2R64    NG301    CG331     9     0.000000     3.765600     4
  CG2RC0   CG2R64    NG311    CG321     9   180.000000     8.368000     2
  CG2RC0   CG2R64    NG311    CG331     9     0.000000     0.836800     1
  CG2RC0   CG2R64    NG311    CG331     9   180.000000     5.857600     2
  CG2RC0   CG2R64    NG311   HGPAM1     9   180.000000    11.715200     2
  CG2RC0   CG2R66   CG2R66     FGR1     9   180.000000    20.710800     2
  CG2RC0   CG2R67   CG2R67   CG2RC0     9   180.000000     6.276000     2
  CG2RC0   CG2R67   CG2R67   NG2R60     9   180.000000    19.288240     2
  CG2RC0   CG2R67   CG2R67   NG2R62     9   180.000000     0.000000     1
  CG2RC0   CG2R67   CG2R67   NG2R62     9   180.000000    14.853200     2
  CG2RC0   CG2R67   CG2R67   NG2R62     9     0.000000     4.142160     3
  CG2RC0   CG2R67   CG2R67   NG2R62     9     0.000000     2.970640     4
  CG2RC0   CG2R67   CG2RC0   CG2R61     9     0.000000     0.000000     2
  CG2RC0   CG2R67   CG2RC0   CG2RC0     9     0.000000     0.000000     2
  CG2RC0   CG2R67   CG2RC0   CG3C52     9   180.000000    16.736000     2
  CG2RC0   CG2R67   CG2RC0   SG2R50     9   180.000000    23.095680     2
  CG2RC0   CG2R67   NG2R60   CG2R61     9   180.000000    18.242240     2
  CG2RC0   CG2R67   NG2R62   CG2R64     9   180.000000    29.204320     2
  CG2RC0   CG2RC0   CG2RC0   CG2RC0     9     0.000000     0.000000     2
  CG2RC0   CG2RC0   CG2RC0   CG3C51     9   180.000000    16.652320     2
  CG2RC0   CG2RC0   CG2RC0   CG3C52     9   180.000000    12.677520     2
  CG2RC0   CG2RC0   CG2RC0   CG3RC1     9   180.000000    14.936880     2
  CG2RC0   CG2RC0   CG2RC0    NG2D1     9   180.000000    14.644000     2
  CG2RC0   CG2RC0   CG2RC0   NG2R50     9   180.000000    15.062400     2
  CG2RC0   CG2RC0   CG2RC0   SG2R50     9   180.000000     4.727920     2
  CG2RC0   CG2RC0   CG2RC0     HGA4     9   180.000000    20.920000     2
  CG2RC0   CG2RC0   CG3C41   CG3C41     9   180.000000    12.552000     2
  CG2RC0   CG2RC0   CG3C41     HGA2     9     0.000000     2.384880     3
  CG2RC0   CG2RC0   CG3C50   CG2R51     9   180.000000     8.368000     3
  CG2RC0   CG2RC0   CG3C50   CG2R52     9   180.000000     8.368000     3
  CG2RC0   CG2RC0   CG3C50   CG2R53     9   180.000000     8.368000     3
  CG2RC0   CG2RC0   CG3C50   CG2R61     9     0.000000     0.962320     2
  CG2RC0   CG2RC0   CG3C50   CG2R61     9     0.000000     4.686080     3
  CG2RC0   CG2RC0   CG3C50    CG302     9     0.000000     4.184000     3
  CG2RC0   CG2RC0   CG3C50    CG321     9   180.000000     8.368000     3
  CG2RC0   CG2RC0   CG3C50    CG331     9   180.000000     1.464400     2
  CG2RC0   CG2RC0   CG3C50    CG331     9   180.000000     0.920480     3
  CG2RC0   CG2RC0   CG3C50   CG3C31     9   180.000000     8.368000     3
  CG2RC0   CG2RC0   CG3C50   CG3C51     9     0.000000     0.334720     2
  CG2RC0   CG2RC0   CG3C50   CG3C51     9     0.000000     6.359680     3
  CG2RC0   CG2RC0   CG3C50   CG3C52     9     0.000000     0.125520     2
  CG2RC0   CG2RC0   CG3C50   CG3C52     9     0.000000     3.472720     3
  CG2RC0   CG2RC0   CG3C50    NG311     9     0.000000     6.108640     3
  CG2RC0   CG2RC0   CG3C50    NG321     9   180.000000     1.297040     2
  CG2RC0   CG2RC0   CG3C50    NG321     9     0.000000     1.087840     3
  CG2RC0   CG2RC0   CG3C50    NG3P3     9   180.000000     0.878640     2
  CG2RC0   CG2RC0   CG3C50    NG3P3     9   180.000000     3.681920     3
  CG2RC0   CG2RC0   CG3C50    OG311     9     0.000000     0.125520     2
  CG2RC0   CG2RC0   CG3C50    OG311     9     0.000000     0.920480     3
  CG2RC0   CG2RC0   CG3C50    OG311     9     0.000000     0.794960     4
  CG2RC0   CG2RC0   CG3C50   OG3C51     9   180.000000     0.585760     2
  CG2RC0   CG2RC0   CG3C50   OG3C51     9     0.000000     3.263520     3
  CG2RC0   CG2RC0   CG3C51    CG2O1     9   180.000000     3.514560     2
  CG2RC0   CG2RC0   CG3C51    CG2O1     9     0.000000     1.924640     3
  CG2RC0   CG2RC0   CG3C51    CG2O2     9     0.000000     0.000000     3
  CG2RC0   CG2RC0   CG3C51    CG2O3     9     0.000000     0.000000     2
  CG2RC0   CG2RC0   CG3C51    CG2O3     9   180.000000     1.966480     3
  CG2RC0   CG2RC0   CG3C51   CG2R51     9   180.000000     4.184000     3
  CG2RC0   CG2RC0   CG3C51   CG2R57     9   180.000000     4.184000     3
  CG2RC0   CG2RC0   CG3C51   CG2R61     9     0.000000     1.129680     3
  CG2RC0   CG2RC0   CG3C51    CG331     9   180.000000     8.368000     3
  CG2RC0   CG2RC0   CG3C51   CG3C51     9   180.000000     4.309520     3
  CG2RC0   CG2RC0   CG3C51   CG3C52     9   180.000000     4.309520     3
  CG2RC0   CG2RC0   CG3C51   CG3RC1     9   180.000000     4.309520     3
  CG2RC0   CG2RC0   CG3C51   NG2R57     9   180.000000     0.878640     2
  CG2RC0   CG2RC0   CG3C51   NG2R57     9   180.000000     0.627600     3
  CG2RC0   CG2RC0   CG3C51    NG321     9     0.000000     5.355520     2
  CG2RC0   CG2RC0   CG3C51    NG321     9     0.000000     3.849280     3
  CG2RC0   CG2RC0   CG3C51   NG3C51     9     0.000000     0.000000     2
  CG2RC0   CG2RC0   CG3C51   NG3C51     9     0.000000     0.627600     3
  CG2RC0   CG2RC0   CG3C51    NG3N1     9     0.000000     7.238320     3
  CG2RC0   CG2RC0   CG3C51    OG301     9     0.000000     2.133840     3
  CG2RC0   CG2RC0   CG3C51    OG311     9     0.000000     2.845120     3
  CG2RC0   CG2RC0   CG3C51    OG311     9   180.000000     1.171520     4
  CG2RC0   CG2RC0   CG3C51   OG3C51     9   180.000000     4.309520     3
  CG2RC0   CG2RC0   CG3C51     HGA1     9     0.000000     2.092000     3
  CG2RC0   CG2RC0   CG3C52   CG25C1     9   180.000000     4.184000     3
  CG2RC0   CG2RC0   CG3C52   CG25C2     9   180.000000     4.184000     3
  CG2RC0   CG2RC0   CG3C52    CG2O5     9   180.000000     2.301200     2
  CG2RC0   CG2RC0   CG3C52    CG2O5     9   180.000000     3.514560     3
  CG2RC0   CG2RC0   CG3C52   CG2R51     9   180.000000     4.184000     3
  CG2RC0   CG2RC0   CG3C52   CG2R52     9   180.000000     8.368000     3
  CG2RC0   CG2RC0   CG3C52   CG2R53     9   180.000000     8.368000     3
  CG2RC0   CG2RC0   CG3C52   CG2R57     9   180.000000     4.184000     3
  CG2RC0   CG2RC0   CG3C52   CG3C50     9   180.000000    17.363600     3
  CG2RC0   CG2RC0   CG3C52   CG3C50     9   180.000000     0.041840     6
  CG2RC0   CG2RC0   CG3C52   CG3C51     9   180.000000     4.309520     3
  CG2RC0   CG2RC0   CG3C52   CG3C52     9   180.000000     4.309520     3
  CG2RC0   CG2RC0   CG3C52   CG3C53     9   180.000000     7.782240     2
  CG2RC0   CG2RC0   CG3C52   CG3C53     9   180.000000     0.794960     3
  CG2RC0   CG2RC0   CG3C52   CG3RC1     9   180.000000     4.309520     3
  CG2RC0   CG2RC0   CG3C52   NG2R57     9     0.000000     0.836800     2
  CG2RC0   CG2RC0   CG3C52   NG2R57     9     0.000000     3.179840     3
  CG2RC0   CG2RC0   CG3C52   NG3C51     9     0.000000     0.083680     2
  CG2RC0   CG2RC0   CG3C52   NG3C51     9     0.000000     0.543920     3
  CG2RC0   CG2RC0   CG3C52   OG3C51     9   180.000000     4.309520     3
  CG2RC0   CG2RC0   CG3C52     HGA2     9     0.000000     2.092000     3
  CG2RC0   CG2RC0   CG3C53   CG3C52     9   180.000000     4.309520     3
  CG2RC0   CG2RC0   CG3C53    NG3P3     9   180.000000     0.669440     2
  CG2RC0   CG2RC0   CG3C53    NG3P3     9     0.000000     0.418400     3
  CG2RC0   CG2RC0   CG3C53     HGA1     9     0.000000     2.092000     3
  CG2RC0   CG2RC0   CG3C54    NG3P2     9     0.000000     0.000000     2
  CG2RC0   CG2RC0   CG3C54    NG3P2     9     0.000000     2.259360     3
  CG2RC0   CG2RC0   CG3C54     HGA2     9     0.000000     2.092000     3
  CG2RC0   CG2RC0   CG3RC1    CG311     9     0.000000     0.083680     3
  CG2RC0   CG2RC0   CG3RC1    CG311     9     0.000000     0.418400     4
  CG2RC0   CG2RC0   CG3RC1    CG321     9     0.000000     0.418400     3
  CG2RC0   CG2RC0   CG3RC1    CG324     9     0.000000     0.000000     2
  CG2RC0   CG2RC0   CG3RC1    CG324     9     0.000000    10.083440     3
  CG2RC0   CG2RC0   CG3RC1   CG3C31     9     0.000000    14.058240     3
  CG2RC0   CG2RC0   CG3RC1   CG3C41     9   180.000000     0.083680     2
  CG2RC0   CG2RC0   CG3RC1   CG3C41     9     0.000000     1.422560     3
  CG2RC0   CG2RC0   CG3RC1   CG3C51     9     0.000000     1.757280     3
  CG2RC0   CG2RC0   CG3RC1   CG3C51     9   180.000000     3.723760     4
  CG2RC0   CG2RC0   CG3RC1   CG3C52     9   180.000000     7.238320     2
  CG2RC0   CG2RC0   CG3RC1   CG3C52     9   180.000000     0.460240     3
  CG2RC0   CG2RC0   CG3RC1   CG3RC1     9   180.000000     0.083680     2
  CG2RC0   CG2RC0   CG3RC1   CG3RC1     9   180.000000     0.083680     3
  CG2RC0   CG2RC0   CG3RC1   CG3RC1     9     0.000000     2.677760     6
  CG2RC0   CG2RC0   CG3RC1    OG311     9     0.000000     2.845120     3
  CG2RC0   CG2RC0   CG3RC1    OG311     9   180.000000     1.171520     4
  CG2RC0   CG2RC0   CG3RC1    SG3O3     9     0.000000     2.510400     2
  CG2RC0   CG2RC0   CG3RC1    SG3O3     9     0.000000     1.380720     3
  CG2RC0   CG2RC0   CG3RC1     HGA1     9     0.000000     0.000000     3
  CG2RC0   CG2RC0    NG2D1   CG2RC0     9   180.000000     5.020800     2
  CG2RC0   CG2RC0   NG2R50   CG2R52     9   180.000000    16.736000     2
  CG2RC0   CG2RC0   NG2R50   CG2R53     9   180.000000    25.104000     2
  CG2RC0   CG2RC0   NG2R50   CG2R57     9   180.000000    16.736000     2
  CG2RC0   CG2RC0   NG2R50   NG2R50     9   180.000000    41.881840     2
  CG2RC0   CG2RC0   NG2R50   NG2R51     9   180.000000    40.082720     2
  CG2RC0   CG2RC0   NG2R50   OG2R50     9   180.000000    42.467600     2
  CG2RC0   CG2RC0   NG2R51   CG251O     9   180.000000    25.104000     2
  CG2RC0   CG2RC0   NG2R51   CG252O     9   180.000000    25.104000     2
  CG2RC0   CG2RC0   NG2R51    CG2O1     9   180.000000    14.936880     2
  CG2RC0   CG2RC0   NG2R51   CG2R51     9   180.000000     6.276000     2
  CG2RC0   CG2RC0   NG2R51   CG2R53     9   180.000000    25.104000     2
  CG2RC0   CG2RC0   NG2R51   CG2R57     9   180.000000     6.276000     2
  CG2RC0   CG2RC0   NG2R51   CG2R64     9   180.000000    14.225600     2
  CG2RC0   CG2RC0   NG2R51    CG311     9   180.000000    34.601680     2
  CG2RC0   CG2RC0   NG2R51    CG322     9   180.000000    12.886720     2
  CG2RC0   CG2RC0   NG2R51    CG331     9   180.000000    46.024000     2
  CG2RC0   CG2RC0   NG2R51   CG3C41     9   180.000000    46.024000     2
  CG2RC0   CG2RC0   NG2R51   CG3C50     9   180.000000    46.024000     2
  CG2RC0   CG2RC0   NG2R51   CG3C51     9   180.000000    46.024000     2
  CG2RC0   CG2RC0   NG2R51   CG3C52     9   180.000000    19.664800     2
  CG2RC0   CG2RC0   NG2R51   CG3RC1     9   180.000000     5.020800     2
  CG2RC0   CG2RC0   NG2R51   NG2R50     9   180.000000    27.196000     2
  CG2RC0   CG2RC0   NG2R51   NG2R51     9   180.000000    12.677520     2
  CG2RC0   CG2RC0   NG2R51    NG3N1     9   180.000000     2.217520     2
  CG2RC0   CG2RC0   NG2R51    OG301     9   180.000000     1.619626     2
  CG2RC0   CG2RC0   NG2R51     HGP1     9   180.000000     3.556400     2
  CG2RC0   CG2RC0   NG2R51     CN7B     9   180.000000    46.024000     2
  CG2RC0   CG2RC0   NG2R52    CG2N2     9   180.000000     2.301200     2
  CG2RC0   CG2RC0   NG2R52   CG2R51     9   180.000000    12.552000     2
  CG2RC0   CG2RC0   NG2R52   CG2R53     9   180.000000    12.552000     2
  CG2RC0   CG2RC0   NG2R52    CG334     9   180.000000    23.012000     2
  CG2RC0   CG2RC0   NG2R52   CG3C31     9   180.000000     8.409840     2
  CG2RC0   CG2RC0   NG2R52   CG3C53     9     0.000000     0.334720     2
  CG2RC0   CG2RC0   NG2R52    NG3N1     9   180.000000    15.857360     2
  CG2RC0   CG2RC0   NG2R52     HGP2     9   180.000000     6.694400     2
  CG2RC0   CG2RC0   NG2R52     CN7B     9   180.000000    23.012000     2
  CG2RC0   CG2RC0   NG2R53    CG2O1     9   180.000000     7.280160     2
  CG2RC0   CG2RC0   NG2R53   CG2R53     9   180.000000    25.104000     2
  CG2RC0   CG2RC0   NG2R53    CG331     9   180.000000     4.184000     2
  CG2RC0   CG2RC0   NG2R53     HGP1     9   180.000000     9.079280     2
  CG2RC0   CG2RC0   NG2R57   CG2R57     9     0.000000     1.715440     2
  CG2RC0   CG2RC0   NG2R57   CG2R57     9   180.000000     2.468560     4
  CG2RC0   CG2RC0   NG2R57   CG3C52     9   180.000000     6.819920     2
  CG2RC0   CG2RC0   NG2R60   CG2R64     9   180.000000     5.773920     2
  CG2RC0   CG2RC0   NG2R61   CG2R61     9     0.000000     0.753120     2
  CG2RC0   CG2RC0   NG2R61   CG2R62     9   180.000000     0.000000     2
  CG2RC0   CG2RC0   NG2R61   CG2R63     9     0.000000     2.845120     2
  CG2RC0   CG2RC0   NG2R61   CG2R64     9   180.000000     0.000000     2
  CG2RC0   CG2RC0   NG2R61   CG2RC0     9   180.000000     0.000000     2
  CG2RC0   CG2RC0   NG2R61    CG331     9   180.000000     1.338880     2
  CG2RC0   CG2RC0   NG2R61   CG3C52     9     0.000000     0.000000     2
  CG2RC0   CG2RC0   NG2R61     HGP1     9   180.000000     1.882800     2
  CG2RC0   CG2RC0   NG2R61     HGP2     9   180.000000     1.882800     2
  CG2RC0   CG2RC0   NG2R62   CG2R63     9   180.000000     0.836800     2
  CG2RC0   CG2RC0   NG2R62   CG2R64     9   180.000000     0.836800     2
  CG2RC0   CG2RC0   NG2R62   NG2R62     9   180.000000     7.070960     2
  CG2RC0   CG2RC0   NG2R67   CG2R63     9     0.000000     2.133840     2
  CG2RC0   CG2RC0   NG2R67   CG2R67     9     0.000000     4.811600     2
  CG2RC0   CG2RC0    NG2S0    CG2O1     9     0.000000     1.799120     2
  CG2RC0   CG2RC0    NG2S0   CG3C51     9   180.000000     1.046000     1
  CG2RC0   CG2RC0    NG2S0   CG3C51     9     0.000000     0.376560     2
  CG2RC0   CG2RC0    NG2S0   CG3C52     9   180.000000     1.213360     1
  CG2RC0   CG2RC0    NG2S0   CG3C52     9     0.000000     0.083680     2
  CG2RC0   CG2RC0    NG2S0   CG3RC1     9   180.000000     3.221680     1
  CG2RC0   CG2RC0    NG2S0   CG3RC1     9     0.000000     0.167360     2
  CG2RC0   CG2RC0    NG311   CG2R61     9   180.000000     1.840960     2
  CG2RC0   CG2RC0    NG311   HGPAM1     9     0.000000     3.430880     2
  CG2RC0   CG2RC0   NG3C51   CG2D1O     9     0.000000     7.949600     3
  CG2RC0   CG2RC0   NG3C51   CG2D2O     9     0.000000     7.949600     3
  CG2RC0   CG2RC0   NG3C51   CG2R61     9   180.000000    10.920240     2
  CG2RC0   CG2RC0   NG3C51   CG2R61     9     0.000000     3.974800     3
  CG2RC0   CG2RC0   NG3C51   CG2R62     9     0.000000     3.556400     3
  CG2RC0   CG2RC0   NG3C51   CG2R62     9     0.000000     1.715440     4
  CG2RC0   CG2RC0   NG3C51   CG2R64     9     0.000000     0.083680     2
  CG2RC0   CG2RC0   NG3C51   CG2R64     9     0.000000     2.635920     3
  CG2RC0   CG2RC0   NG3C51    CG311     9     0.000000     1.171520     3
  CG2RC0   CG2RC0   NG3C51    CG311     9     0.000000     4.518720     6
  CG2RC0   CG2RC0   NG3C51    CG321     9     0.000000     0.209200     2
  CG2RC0   CG2RC0   NG3C51    CG321     9   180.000000     0.376560     3
  CG2RC0   CG2RC0   NG3C51    CG331     9     0.000000     0.000000     2
  CG2RC0   CG2RC0   NG3C51    CG331     9     0.000000     1.715440     3
  CG2RC0   CG2RC0   NG3C51   CG3C50     9     0.000000     8.200640     3
  CG2RC0   CG2RC0   NG3C51   CG3C51     9     0.000000     8.200640     3
  CG2RC0   CG2RC0   NG3C51   CG3C52     9     0.000000     8.200640     3
  CG2RC0   CG2RC0   NG3C51   CG3C53     9     0.000000     0.251040     2
  CG2RC0   CG2RC0   NG3C51   CG3C53     9   180.000000     0.251040     6
  CG2RC0   CG2RC0   NG3C51    SG3O2     9   180.000000    10.962080     2
  CG2RC0   CG2RC0   NG3C51    SG3O2     9   180.000000     1.004160     3
  CG2RC0   CG2RC0   NG3C51    SG3O3     9     0.000000     0.209200     2
  CG2RC0   CG2RC0   NG3C51    SG3O3     9     0.000000     3.974800     3
  CG2RC0   CG2RC0   NG3C51     HGP1     9     0.000000     0.000000     3
  CG2RC0   CG2RC0   OG2R50   CG2R51     9   180.000000    35.564000     2
  CG2RC0   CG2RC0   OG2R50   CG2R53     9   180.000000    35.564000     2
  CG2RC0   CG2RC0   OG2R50   CG2R57     9   180.000000    35.564000     2
  CG2RC0   CG2RC0   OG2R50   NG2R50     9     0.000000     0.209200     2
  CG2RC0   CG2RC0   OG3C51   CG3C50     9   180.000000     1.255200     2
  CG2RC0   CG2RC0   OG3C51   CG3C51     9   180.000000     1.255200     2
  CG2RC0   CG2RC0   OG3C51   CG3C52     9   180.000000     1.255200     2
  CG2RC0   CG2RC0   SG2R50   CG251O     9   180.000000    12.552000     2
  CG2RC0   CG2RC0   SG2R50   CG252O     9   180.000000    12.552000     2
  CG2RC0   CG2RC0   SG2R50   CG2R51     9   180.000000    35.564000     2
  CG2RC0   CG2RC0   SG2R50   CG2R53     9   180.000000    12.552000     2
  CG2RC0   CG2RC0   SG2R50   CG2R57     9   180.000000    35.564000     2
  CG2RC0   CG2RC0   SG2R50   NG2R50     9     0.000000     0.000000     2
  CG2RC0   CG2RC0   SG2R50   NG2R51     9   180.000000    11.924400     2
  CG2RC0   CG2RC0    SG311   CG3C51     9     0.000000     0.585760     1
  CG2RC0   CG2RC0    SG311   CG3C51     9   180.000000    13.095920     2
  CG2RC0   CG2RC0    SG3O2   NG2R50     9     0.000000     0.000000     2
  CG2RC0   CG2RC0    SG3O2   NG2R50     9   180.000000     1.799120     6
  CG2RC0   CG2RC0    SG3O2    OG2P1     9     0.000000     1.046000     2
  CG2RC0   CG2RC0    SG3O2    OG2P1     9     0.000000     0.627600     6
  CG2RC0   CG2RC0    BG201    OG2D2     9     0.000000    16.648136     3
  CG2RC0   CG2RC0    BG201    OG311     9     0.000000    19.333009     3
  CG2RC0   CG2RC0    BG201   OG3C51     9   180.000000     5.619112     3
  CG2RC0   CG3C31   CG3C31   CG3C31     9   180.000000     8.493520     3
  CG2RC0   CG3C31   CG3C31   CG3C31     9     0.000000     0.502080     6
  CG2RC0   CG3C31   CG3C31     HGA1     9   180.000000     0.000000     5
  CG2RC0   CG3C31   CG3C31     HGA2     9   180.000000     0.000000     5
  CG2RC0   CG3C41   CG3C41   CG2RC0     9   180.000000    12.552000     2
  CG2RC0   CG3C41   CG3C41     HGA2     9     0.000000     2.384880     3
  CG2RC0   CG3C50   CG3C51    CG324     9   180.000000     0.167360     2
  CG2RC0   CG3C50   CG3C51    CG324     9   180.000000     2.384880     3
  CG2RC0   CG3C50   CG3C51    CG324     9   180.000000     0.125520     4
  CG2RC0   CG3C50   CG3C51    CG324     9   180.000000     1.171520     6
  CG2RC0   CG3C50   CG3C51    CG331     9   180.000000     4.142160     2
  CG2RC0   CG3C50   CG3C51    CG331     9     0.000000     2.677760     3
  CG2RC0   CG3C50   CG3C51    CG331     9     0.000000     1.757280     4
  CG2RC0   CG3C50   CG3C51    CG331     9     0.000000     2.803280     6
  CG2RC0   CG3C50   CG3C51   CG3C52     9   180.000000     1.422560     3
  CG2RC0   CG3C50   CG3C51   NG3C51     9     0.000000     0.209200     3
  CG2RC0   CG3C50   CG3C51   NG3C51     9     0.000000    19.790320     4
  CG2RC0   CG3C50   CG3C51     HGA1     9     0.000000     0.794960     3
  CG2RC0   CG3C50   CG3C52   CG2R51     9   180.000000     1.129680     2
  CG2RC0   CG3C50   CG3C52   CG2R51     9     0.000000     0.209200     3
  CG2RC0   CG3C50   CG3C52   CG3C51     9   180.000000     1.422560     3
  CG2RC0   CG3C50   CG3C52   CG3C52     9   180.000000     0.711280     2
  CG2RC0   CG3C50   CG3C52   CG3C52     9   180.000000     1.548080     3
  CG2RC0   CG3C50   CG3C52   NG3C51     9   180.000000    14.518480     2
  CG2RC0   CG3C50   CG3C52   NG3C51     9     0.000000     0.041840     3
  CG2RC0   CG3C50   CG3C52     HGA2     9     0.000000     0.000000     3
  CG2RC0   CG3C50    NG311    CG321     9   180.000000     8.368000     1
  CG2RC0   CG3C50    NG311    CG321     9     0.000000     2.928800     3
  CG2RC0   CG3C50    NG311   HGPAM1     9     0.000000     0.836800     2
  CG2RC0   CG3C50    NG321   HGPAM2     9     0.000000     4.016640     1
  CG2RC0   CG3C50    NG321   HGPAM2     9   180.000000     2.217520     2
  CG2RC0   CG3C50    NG321   HGPAM2     9     0.000000     5.355520     3
  CG2RC0   CG3C50    NG3P3     HGP2     9     0.000000     1.255200     3
  CG2RC0   CG3C50    OG311     HGP1     9   180.000000     0.543920     1
  CG2RC0   CG3C50    OG311     HGP1     9     0.000000    11.213120     2
  CG2RC0   CG3C50    OG311     HGP1     9   180.000000     2.803280     3
  CG2RC0   CG3C50   OG3C51   CG251O     9     0.000000     0.000000     1
  CG2RC0   CG3C50   OG3C51   CG251O     9   180.000000     4.518720     2
  CG2RC0   CG3C50   OG3C51   CG251O     9     0.000000     1.087840     6
  CG2RC0   CG3C50   OG3C51   CG252O     9     0.000000     0.000000     1
  CG2RC0   CG3C50   OG3C51   CG252O     9   180.000000     4.518720     2
  CG2RC0   CG3C50   OG3C51   CG252O     9     0.000000     1.087840     6
  CG2RC0   CG3C50   OG3C51   CG2R51     9   180.000000     1.966480     1
  CG2RC0   CG3C50   OG3C51   CG2R51     9   180.000000     1.506240     2
  CG2RC0   CG3C50   OG3C51   CG2R51     9     0.000000     0.251040     6
  CG2RC0   CG3C50   OG3C51   CG3C51     9     0.000000     0.000000     2
  CG2RC0   CG3C50   OG3C51   CG3C51     9     0.000000     8.368000     3
  CG2RC0   CG3C51   CG3C51   CG2RC0     9   180.000000     1.631760     2
  CG2RC0   CG3C51   CG3C51   CG2RC0     9   180.000000     1.129680     3
  CG2RC0   CG3C51   CG3C51    OG311     9     0.000000     0.585760     3
  CG2RC0   CG3C51   CG3C51     HGA1     9     0.000000     0.794960     3
  CG2RC0   CG3C51   CG3C52   CG3C50     9   180.000000     1.422560     3
  CG2RC0   CG3C51   CG3C52   CG3C51     9   180.000000     1.422560     3
  CG2RC0   CG3C51   CG3C52   CG3C52     9   180.000000     1.422560     3
  CG2RC0   CG3C51   CG3C52   NG2R57     9   180.000000     1.882800     3
  CG2RC0   CG3C51   CG3C52   NG2R57     9     0.000000     1.548080     4
  CG2RC0   CG3C51   CG3C52   NG3C51     9     0.000000    10.376320     3
  CG2RC0   CG3C51   CG3C52   OG3C51     9   180.000000     1.046000     3
  CG2RC0   CG3C51   CG3C52     HGA2     9     0.000000     0.585760     3
  CG2RC0   CG3C51   CG3RC1   CG2RC0     9     0.000000     0.502080     3
  CG2RC0   CG3C51   CG3RC1   CG2RC0     9   180.000000     0.041840     6
  CG2RC0   CG3C51   CG3RC1   CG3RC1     9   180.000000     0.502080     3
  CG2RC0   CG3C51   CG3RC1   CG3RC1     9     0.000000     6.192320     4
  CG2RC0   CG3C51   CG3RC1     HGA1     9     0.000000     0.000000     3
  CG2RC0   CG3C51   NG2R57   CG2R57     9     0.000000     1.004160     2
  CG2RC0   CG3C51   NG2R57   CG2R57     9     0.000000     7.489360     4
  CG2RC0   CG3C51   NG2R57   CG3C52     9     0.000000     0.376560     2
  CG2RC0   CG3C51   NG2R57   CG3C52     9   180.000000     5.020800     4
  CG2RC0   CG3C51    NG321   HGPAM2     9     0.000000     5.062640     1
  CG2RC0   CG3C51    NG321   HGPAM2     9   180.000000     0.251040     2
  CG2RC0   CG3C51    NG321   HGPAM2     9     0.000000     3.514560     3
  CG2RC0   CG3C51    NG321   HGPAM2     9     0.000000     0.334720     4
  CG2RC0   CG3C51   NG3C51    CG331     9     0.000000     2.301200     3
  CG2RC0   CG3C51   NG3C51    CG331     9     0.000000     0.711280     6
  CG2RC0   CG3C51   NG3C51   CG3C52     9   180.000000     8.577200     3
  CG2RC0   CG3C51    NG3N1    NG3N1     9   180.000000    10.543680     1
  CG2RC0   CG3C51    NG3N1    NG3N1     9     0.000000    11.422320     3
  CG2RC0   CG3C51    NG3N1     HGP1     9     0.000000     3.347200     2
  CG2RC0   CG3C51    NG3N1     HGP1     9   180.000000     5.899440     3
  CG2RC0   CG3C51    OG301    CG331     9     0.000000     0.041840     1
  CG2RC0   CG3C51    OG301    CG331     9   180.000000     6.819920     2
  CG2RC0   CG3C51    OG301    CG331     9     0.000000     3.138000     3
  CG2RC0   CG3C51    OG311     HGP1     9     0.000000     0.627600     1
  CG2RC0   CG3C51    OG311     HGP1     9     0.000000     4.602400     2
  CG2RC0   CG3C51    OG311     HGP1     9     0.000000     2.719600     3
  CG2RC0   CG3C51   OG3C51   CG3C50     9     0.000000     1.548080     2
  CG2RC0   CG3C51   OG3C51   CG3C50     9     0.000000     4.184000     3
  CG2RC0   CG3C51   OG3C51   CG3C52     9     0.000000     0.000000     2
  CG2RC0   CG3C51   OG3C51   CG3C52     9     0.000000     0.209200     3
  CG2RC0   CG3C52   CG3C52   CG3C50     9     0.000000     0.000000     2
  CG2RC0   CG3C52   CG3C52   CG3C50     9     0.000000     0.878640     3
  CG2RC0   CG3C52   CG3C52   CG3C51     9   180.000000     1.422560     3
  CG2RC0   CG3C52   CG3C52   CG3C52     9   180.000000     8.033280     3
  CG2RC0   CG3C52   CG3C52   CG3C52     9     0.000000     8.409840     4
  CG2RC0   CG3C52   CG3C52   CG3C52     9   180.000000     1.966480     6
  CG2RC0   CG3C52   CG3C52   CG3C53     9   180.000000     1.422560     3
  CG2RC0   CG3C52   CG3C52   CG3C54     9   180.000000     1.422560     3
  CG2RC0   CG3C52   CG3C52   NG2R61     9     0.000000     0.000000     2
  CG2RC0   CG3C52   CG3C52   NG2R61     9     0.000000     0.502080     3
  CG2RC0   CG3C52   CG3C52    NG2S0     9     0.000000    14.434800     3
  CG2RC0   CG3C52   CG3C52   NG3C51     9     0.000000    10.376320     3
  CG2RC0   CG3C52   CG3C52     HGA2     9     0.000000     0.000000     3
  CG2RC0   CG3C52   CG3C53   CG3C52     9   180.000000    15.480800     3
  CG2RC0   CG3C52   CG3C53   CG3C52     9     0.000000     9.414000     4
  CG2RC0   CG3C52   CG3C53   CG3C52     9   180.000000     0.962320     6
  CG2RC0   CG3C52   CG3C53    NG3P3     9   180.000000     2.510400     3
  CG2RC0   CG3C52   CG3C53     HGA1     9     0.000000     0.000000     3
  CG2RC0   CG3C52   CG3RC1   CG2RC0     9   180.000000    11.338640     2
  CG2RC0   CG3C52   CG3RC1   CG2RC0     9   180.000000     2.510400     3
  CG2RC0   CG3C52   CG3RC1    CG311     9     0.000000     0.000000     3
  CG2RC0   CG3C52   CG3RC1    CG311     9   180.000000     4.100320     4
  CG2RC0   CG3C52   CG3RC1    CG311     9     0.000000     0.585760     6
  CG2RC0   CG3C52   CG3RC1   CG3C31     9   180.000000     0.000000     3
  CG2RC0   CG3C52   CG3RC1   CG3C31     9   180.000000     0.794960     4
  CG2RC0   CG3C52   CG3RC1   CG3C31     9   180.000000     9.748720     6
  CG2RC0   CG3C52   CG3RC1   CG3RC1     9     0.000000     0.000000     2
  CG2RC0   CG3C52   CG3RC1   CG3RC1     9   180.000000     0.209200     3
  CG2RC0   CG3C52   CG3RC1     HGA1     9     0.000000     0.000000     3
  CG2RC0   CG3C52   NG2R57   CG2R57     9   180.000000     0.376560     2
  CG2RC0   CG3C52   NG2R57   CG2R57     9   180.000000     3.389040     4
  CG2RC0   CG3C52   NG2R57   CG3C51     9   180.000000     8.660880     2
  CG2RC0   CG3C52   NG2R57   CG3C51     9     0.000000     1.715440     4
  CG2RC0   CG3C52   NG3C51    CG331     9     0.000000     6.527040     3
  CG2RC0   CG3C52   NG3C51    CG331     9   180.000000     0.209200     6
  CG2RC0   CG3C52   NG3C51   CG3C51     9   180.000000     8.577200     3
  CG2RC0   CG3C52   NG3C51   CG3C52     9   180.000000     8.577200     3
  CG2RC0   CG3C52   OG3C51   CG2R53     9   180.000000     1.297040     1
  CG2RC0   CG3C52   OG3C51   CG2R53     9     0.000000     1.171520     6
  CG2RC0   CG3C52   OG3C51   CG3C51     9     0.000000     0.000000     2
  CG2RC0   CG3C52   OG3C51   CG3C51     9     0.000000     3.974800     3
  CG2RC0   CG3C52   OG3C51    BG201     9   180.000000    10.444519     2
  CG2RC0   CG3C53   NG2R61   CG2R62     9     0.000000     0.041840     3
  CG2RC0   CG3C53   NG2R61   CG2R62     9     0.000000     0.334720     6
  CG2RC0   CG3C53    NG3P3     HGP2     9     0.000000     1.255200     3
  CG2RC0   CG3C54    NG3P2   CG3C54     9   180.000000     7.865920     3
  CG2RC0   CG3C54    NG3P2     HGP2     9     0.000000     1.255200     3
  CG2RC0   CG3RC1   CG3RC1   CG2RC0     9   180.000000     3.221680     2
  CG2RC0   CG3RC1   CG3RC1   CG2RC0     9   180.000000     0.502080     3
  CG2RC0   CG3RC1   CG3RC1    CG321     9   180.000000     0.794960     2
  CG2RC0   CG3RC1   CG3RC1    CG321     9   180.000000     1.422560     3
  CG2RC0   CG3RC1   CG3RC1    CG331     9   180.000000     0.794960     2
  CG2RC0   CG3RC1   CG3RC1    CG331     9   180.000000     1.422560     3
  CG2RC0   CG3RC1   CG3RC1   CG3C31     9   180.000000     3.472720     2
  CG2RC0   CG3RC1   CG3RC1   CG3C31     9   180.000000     0.460240     3
  CG2RC0   CG3RC1   CG3RC1   CG3C41     9     0.000000     0.000000     2
  CG2RC0   CG3RC1   CG3RC1   CG3C41     9   180.000000    14.141920     3
  CG2RC0   CG3RC1   CG3RC1   CG3C51     9   180.000000     0.292880     3
  CG2RC0   CG3RC1   CG3RC1   CG3C51     9     0.000000     2.217520     4
  CG2RC0   CG3RC1   CG3RC1   CG3C52     9     0.000000     0.000000     2
  CG2RC0   CG3RC1   CG3RC1   CG3C52     9     0.000000     2.050160     3
  CG2RC0   CG3RC1   CG3RC1   CG3RC1     9     0.000000     0.000000     3
  CG2RC0   CG3RC1   CG3RC1   CG3RC1     9     0.000000    12.510160     6
  CG2RC0   CG3RC1   CG3RC1    NG2S0     9   180.000000    24.392720     2
  CG2RC0   CG3RC1   CG3RC1    NG2S0     9     0.000000     7.280160     3
  CG2RC0   CG3RC1   CG3RC1    OG311     9   180.000000     0.794960     2
  CG2RC0   CG3RC1   CG3RC1    OG311     9   180.000000     1.422560     3
  CG2RC0   CG3RC1   CG3RC1     HGA1     9     0.000000     0.000000     3
  CG2RC0   CG3RC1    OG311     HGP1     9     0.000000     0.627600     1
  CG2RC0   CG3RC1    OG311     HGP1     9     0.000000     4.602400     2
  CG2RC0   CG3RC1    OG311     HGP1     9     0.000000     2.719600     3
  CG2RC0   CG3RC1    SG3O3   CG2R52     9   180.000000     3.347200     2
  CG2RC0   CG3RC1    SG3O3   CG2R52     9     0.000000     2.845120     3
  CG2RC0   CG3RC1    SG3O3   NG3C51     9   180.000000     5.313680     1
  CG2RC0   CG3RC1    SG3O3   NG3C51     9   180.000000    12.803040     2
  CG2RC0   CG3RC1    SG3O3   NG3C51     9   180.000000     3.891120     3
  CG2RC0   CG3RC1    SG3O3    OG2P1     9   180.000000    28.325680     3
  CG2RC0   NG2R50   NG2R51   CG2R51     9   180.000000    50.208000     2
  CG2RC0   NG2R50   NG2R51   CG2R53     9   180.000000    41.840000     2
  CG2RC0   NG2R50   NG2R51    CG331     9   180.000000     5.857600     2
  CG2RC0   NG2R50   OG2R50   NG2R50     9   180.000000    37.697840     2
  CG2RC0   NG2R51   NG2R51    CG331     9   180.000000    17.112560     2
  CG2RC0   NG2R51    NG3N1     HGP1     9   180.000000     0.125520     1
  CG2RC0   NG2R51    NG3N1     HGP1     9     0.000000    15.731840     2
  CG2RC0   NG2R51    NG3N1     HGP1     9     0.000000     1.631760     3
  CG2RC0   NG2R51    NG3N1     HGP1     9   180.000000     0.502080     6
  CG2RC0   NG2R51    OG301    OG311     9     0.000000     0.001255     1
  CG2RC0   NG2R51    OG301    OG311     9     0.000000    13.610552     2
  CG2RC0   NG2R51    OG301    OG311     9     0.000000     6.333321     3
  CG2RC0   NG2R51    OG301    OG311     9     0.000000     1.638036     4
  CG2RC0   NG2R51     CN7B     CN7B     9     0.000000     0.000000     3
  CG2RC0   NG2R51     CN7B     ON6B     9   180.000000     4.602400     1
  CG2RC0   NG2R51     CN7B     ON6B     9     0.000000     0.836800     3
  CG2RC0   NG2R51     CN7B      HN7     9   180.000000     1.046000     2
  CG2RC0   NG2R51     CN7B      CN8     9     0.000000     0.000000     3
  CG2RC0   NG2R51     CN7B      ON6     9   180.000000     4.602400     1
  CG2RC0   NG2R51     CN7B      ON6     9     0.000000     0.836800     3
  CG2RC0   NG2R52    NG3N1     HGP1     9     0.000000     7.531200     1
  CG2RC0   NG2R52    NG3N1     HGP1     9     0.000000    13.765360     2
  CG2RC0   NG2R52    NG3N1     HGP1     9   180.000000     1.213360     3
  CG2RC0   NG2R52    NG3N1     HGP1     9     0.000000     1.548080     6
  CG2RC0   NG2R52     CN7B     CN7B     9   180.000000     4.602400     1
  CG2RC0   NG2R52     CN7B     ON6B     9   180.000000     1.673600     1
  CG2RC0   NG2R52     CN7B      HN7     9     0.000000     0.418400     3
  CG2RC0   NG3C51    SG3O2   NG3C51     9     0.000000     0.000000     2
  CG2RC0   NG3C51    SG3O2   NG3C51     9     0.000000     7.447520     3
  CG2RC0   NG3C51    SG3O2    OG2P1     9   180.000000     7.656720     3
  CG2RC0   NG3C51    SG3O2    OG2P1     9     0.000000     1.422560     6
  CG2RC0   NG3C51    SG3O3   CG2R52     9     0.000000     5.481040     1
  CG2RC0   NG3C51    SG3O3   CG2R52     9     0.000000    46.024000     2
  CG2RC0   NG3C51    SG3O3   CG3RC1     9   180.000000     5.941280     2
  CG2RC0   NG3C51    SG3O3   CG3RC1     9   180.000000     2.426720     3
  CG2RC0   NG3C51    SG3O3    OG2P1     9   180.000000     5.271840     2
  CG2RC0   NG3C51    SG3O3    OG2P1     9     0.000000     5.732080     3
  CG251O   CG251O   CG2R53    OG2D1     9   180.000000    16.736000     2
  CG251O   CG251O   CG2R53   OG3C51     9     0.000000     2.803280     2
  CG251O   CG251O   CG3C52   CG3C52     9     0.000000     1.548080     2
  CG251O   CG251O   CG3C52   CG3C52     9     0.000000     4.895280     3
  CG251O   CG251O   CG3C52     HGA2     9     0.000000     0.000000     3
  CG251O   CG251O   NG2R50   CG2R53     9     0.000000     2.301200     2
  CG251O   CG251O   NG3C51   CG3C52     9   180.000000    11.422320     2
  CG251O   CG251O   NG3C51     HGP1     9   180.000000     7.112800     2
  CG251O   CG251O   NG3C51     HGP1     9   180.000000     0.292880     3
  CG251O   CG25C1   CG2R53   NG2R51     9   180.000000    12.552000     2
  CG251O   CG25C1   CG2R53    OG2D1     9   180.000000    16.736000     2
  CG251O   CG25C1   CG2RC0   CG2R61     9   180.000000    16.736000     2
  CG251O   CG25C1   CG2RC0   CG2RC0     9   180.000000    16.736000     2
  CG251O   CG25C1   CG3C52   CG3C52     9   180.000000     5.397360     2
  CG251O   CG25C1   CG3C52   CG3C52     9   180.000000     2.886960     3
  CG251O   CG25C1   CG3C52     HGA2     9     0.000000     0.000000     3
  CG251O   CG2D1O    NG301    CG331     9   180.000000    20.501600     2
  CG251O   CG2DC1    CG2O3    OG2D2     9   180.000000    10.167120     2
  CG251O   CG2DC1   CG2R51   CG2R51     9   180.000000     0.210455     1
  CG251O   CG2DC1   CG2R51   CG2R51     9   180.000000     3.229211     2
  CG251O   CG2DC1   CG2R51   CG2R51     9     0.000000     1.817948     4
  CG251O   CG2DC1   CG2R51   CG2RC0     9   180.000000     1.681550     2
  CG251O   CG2DC1   CG2R61   CG2R61     9   180.000000     8.249174     2
  CG251O   CG2DC1   CG2R61   CG2R61     9   180.000000     0.069454     4
  CG251O   CG2DC1    CG331     HGA3     9   180.000000     1.115454     3
  CG251O   CG2R53   NG2R51   CG2R53     9   180.000000     8.368000     2
  CG251O   CG2R53   NG2R51    CG321     9   180.000000     0.083680     2
  CG251O   CG2R53   NG2R51    CG331     9   180.000000     0.001255     2
  CG251O   CG2R53   NG2R53   CG2R53     9   180.000000     6.276000     2
  CG251O   CG2R53   NG2R53    CG311     9     0.000000     6.694400     1
  CG251O   CG2R53   NG2R53    CG311     9   180.000000    10.460000     2
  CG251O   CG2R53   NG2R53    CG321     9     0.000000     6.694400     1
  CG251O   CG2R53   NG2R53    CG321     9   180.000000    10.460000     2
  CG251O   CG2R53   NG2R53    CG331     9     0.000000     6.694400     1
  CG251O   CG2R53   NG2R53    CG331     9   180.000000    10.460000     2
  CG251O   CG2R53   NG2R53     HGP1     9   180.000000     7.112800     2
  CG251O   CG2R53   OG3C51   CG2R53     9   180.000000    15.438960     2
  CG251O   CG2R61   CG2R61   CG2R61     9   180.000000    12.552000     2
  CG251O   CG2R61   CG2R61    HGR61     9   180.000000     8.368000     2
  CG251O   CG2R61   NG2R61   CG2R61     9   180.000000    10.208960     2
  CG251O   CG2R61   NG2R61    CG331     9     0.000000     0.000000     2
  CG251O   CG2RC0   CG2RC0   CG2R61     9   180.000000     6.276000     2
  CG251O   CG2RC0   CG2RC0   CG3C50     9   180.000000    20.920000     2
  CG251O   CG3C52   CG3C52   CG3C52     9   180.000000     0.125520     2
  CG251O   CG3C52   CG3C52   CG3C52     9   180.000000     2.970640     3
  CG251O   CG3C52   CG3C52   CG3C52     9     0.000000     0.794960     6
  CG251O   CG3C52   CG3C52     HGA2     9     0.000000     0.000000     3
  CG25C1   CG251O   CG2R53   NG2R53     9   180.000000    20.920000     2
  CG25C1   CG251O   CG2R53    OG2D1     9   180.000000    16.736000     2
  CG25C1   CG251O   NG2R53   CG2R53     9   180.000000    16.736000     2
  CG25C1   CG251O   NG2R53     HGP1     9   180.000000     1.673600     2
  CG25C1   CG251O    SG311   CG2R53     9     0.000000    16.736000     3
  CG25C1   CG25C2   CG2RC0   CG2R61     9   180.000000    12.552000     2
  CG25C1   CG25C2   CG2RC0   CG2RC0     9   180.000000    14.644000     2
  CG25C1   CG25C2    NG2D1    OG301     9   180.000000    24.099840     2
  CG25C1   CG2D1O    CG2O3    OG2D2     9   180.000000     0.251040     2
  CG25C1   CG2D1O    CG331     HGA3     9   180.000000     1.129680     3
  CG25C1   CG2D1O    NG301    CG321     9   180.000000    17.070720     2
  CG25C1   CG2D1O    OG311     HGP1     9     0.000000     3.305360     1
  CG25C1   CG2D1O    OG311     HGP1     9     0.000000     0.000000     2
  CG25C1   CG2D1O    OG311     HGP1     9   180.000000     1.464400     3
  CG25C1   CG2DC1    CG2O3    OG2D2     9   180.000000     5.690240     2
  CG25C1   CG2DC1   CG2R52   CG2R51     9   180.000000     0.209200     1
  CG25C1   CG2DC1   CG2R52   CG2R51     9   180.000000     3.221680     2
  CG25C1   CG2DC1   CG2R52   CG2R51     9     0.000000     1.799120     4
  CG25C1   CG2DC1   CG2R52   NG2R50     9     0.000000     0.167360     1
  CG25C1   CG2DC1   CG2R52   NG2R50     9   180.000000    12.008080     2
  CG25C1   CG2DC1   CG2R52   NG2R50     9   180.000000     2.552240     4
  CG25C1   CG2R52    CG331     HGA3     9     0.000000     0.000000     3
  CG25C1   CG2R52   NG2R50   OG3C51     9   180.000000    10.167120     2
  CG25C1   CG2R53   NG2R51   CG2RC0     9   180.000000     8.368000     2
  CG25C1   CG2R53   NG2R51     HGP1     9   180.000000     1.255200     2
  CG25C1   CG2R53   NG2R53   CG2R53     9   180.000000     6.276000     2
  CG25C1   CG2R53   NG2R53    CG331     9     0.000000     6.694400     1
  CG25C1   CG2R53   NG2R53    CG331     9   180.000000    10.460000     2
  CG25C1   CG2R53   OG3C51   CG3RC1     9   180.000000     2.050160     2
  CG25C1   CG2R53   OG3C51   CG3RC1     9   180.000000     0.627600     3
  CG25C1   CG2RC0   CG2RC0   CG2R61     9   180.000000     6.276000     2
  CG25C1   CG2RC0   CG2RC0   CG2RC0     9     0.000000     0.083680     2
  CG25C1   CG2RC0   CG2RC0   NG2R51     9   180.000000     4.184000     2
  CG25C1   CG3C50   OG3C51   NG2R50     9   180.000000     0.292880     1
  CG25C1   CG3C50   OG3C51   NG2R50     9     0.000000     0.000000     2
  CG25C1   CG3C50   OG3C51   NG2R50     9     0.000000     1.087840     6
  CG25C1   CG3C52   CG3C52   CG3C52     9   180.000000    15.480800     3
  CG25C1   CG3C52   CG3C52   CG3C52     9     0.000000     9.414000     4
  CG25C1   CG3C52   CG3C52   CG3C52     9   180.000000     0.962320     6
  CG25C1   CG3C52   CG3C52     HGA2     9     0.000000     0.585760     3
  CG25C1   CG3RC1   CG3RC1    CG321     9   180.000000     2.677760     3
  CG25C1   CG3RC1   CG3RC1    CG321     9     0.000000     0.041840     6
  CG25C1   CG3RC1   CG3RC1   OG3C51     9     0.000000     1.631760     3
  CG25C1   CG3RC1   CG3RC1   OG3C51     9   180.000000     2.050160     6
  CG25C1   CG3RC1   CG3RC1     HGA1     9     0.000000     0.000000     3
  CG25C1    NG2D1    OG301    CG331     9   180.000000    16.652320     1
  CG25C1    NG2D1    OG301    CG331     9   180.000000    21.003680     2
  CG2D1O   CG251O   CG2R53   NG2R53     9   180.000000     0.836800     2
  CG2D1O   CG251O   CG2R53    OG2D1     9   180.000000     3.347200     2
  CG2D1O   CG251O    SG311   CG2R53     9     0.000000     0.836800     3
  CG2D1O   CG25C1   CG2R53   NG2R51     9   180.000000     0.418400     2
  CG2D1O   CG25C1   CG2R53   NG2R53     9   180.000000     4.978960     2
  CG2D1O   CG25C1   CG2R53    OG2D1     9   180.000000     4.184000     2
  CG2D1O   CG25C1   CG2R53   OG3C51     9   180.000000     1.338880     2
  CG2D1O   CG25C1   CG2RC0   CG2R61     9   180.000000     0.418400     2
  CG2D1O   CG25C1   CG2RC0   CG2RC0     9   180.000000     0.418400     2
  CG2D1O   CG25C1   CG3C52   CG2R53     9   180.000000     1.213360     2
  CG2D1O   CG25C1   CG3C52   CG2R53     9   180.000000     1.966480     3
  CG2D1O   CG25C1   CG3C52     HGA2     9     0.000000     0.000000     3
  CG2D1O   CG25C1   CG3RC1    CG321     9   180.000000     0.167360     3
  CG2D1O   CG25C1   CG3RC1   CG3RC1     9     0.000000     0.878640     2
  CG2D1O   CG25C1   CG3RC1   CG3RC1     9     0.000000     0.209200     3
  CG2D1O   CG25C1   CG3RC1     HGA1     9     0.000000     0.000000     3
  CG2D1O    CG2D1    CG301    CG321     9   180.000000     2.092000     1
  CG2D1O    CG2D1    CG301    CG321     9   180.000000     5.439200     3
  CG2D1O    CG2D1    CG301    CG331     9   180.000000     2.092000     1
  CG2D1O    CG2D1    CG301    CG331     9   180.000000     5.439200     3
  CG2D1O    CG2D1    CG301    OG301     9   180.000000     4.435040     1
  CG2D1O    CG2D1    CG301    OG301     9   180.000000     5.062640     2
  CG2D1O    CG2D1    CG301    OG301     9     0.000000     5.564720     3
  CG2D1O    CG2D1    CG311    CG311     9   180.000000     2.510400     1
  CG2D1O    CG2D1    CG311    CG321     9   180.000000     2.510400     1
  CG2D1O    CG2D1    CG311     HGA1     9   180.000000     1.255200     3
  CG2D1O    CG2D1    CG321    CG2D1     9     0.000000     2.092000     2
  CG2D1O    CG2D1    CG321    CG2D1     9     0.000000     1.882800     4
  CG2D1O    CG2D1    CG321   CG2DC1     9   180.000000     0.000000     3
  CG2D1O    CG2D1    CG321    CG321     9   180.000000     0.000000     1
  CG2D1O    CG2D1    CG321    CG321     9     0.000000     0.000000     2
  CG2D1O    CG2D1    CG321    NG301     9   180.000000     6.694400     1
  CG2D1O    CG2D1    CG321    NG301     9     0.000000     1.255200     3
  CG2D1O    CG2D1    CG321     HGA2     9     0.000000     0.418400     3
  CG2D1O    CG2D1    CG331     HGA3     9   180.000000     1.255200     3
  CG2D1O   CG2D1O   CG2DC2   CG2DC2     9     0.000000     0.125520     1
  CG2D1O   CG2D1O   CG2DC2   CG2DC2     9     0.000000     0.000000     2
  CG2D1O   CG2D1O   CG2DC2   CG2DC2     9     0.000000     0.627600     3
  CG2D1O   CG2D1O   CG2DC2    NG2D1     9     0.000000     2.008320     1
  CG2D1O   CG2D1O   CG2DC2    NG2D1     9   180.000000    27.237840     2
  CG2D1O   CG2D1O   CG2DC2    NG2D1     9     0.000000     9.748720     3
  CG2D1O   CG2D1O   CG2DC2    NG2D1     9     0.000000     0.209200     4
  CG2D1O   CG2D1O   CG2DC2     HGA4     9   180.000000     7.991440     2
  CG2D1O   CG2D1O    CG2O1    NG2D1     9   180.000000     1.338880     1
  CG2D1O   CG2D1O    CG2O1    NG2D1     9   180.000000    13.095920     2
  CG2D1O   CG2D1O    CG2O1    NG2D1     9     0.000000     6.945440     3
  CG2D1O   CG2D1O    CG2O1    NG2D1     9   180.000000     0.000000     4
  CG2D1O   CG2D1O    CG2O1    SG2D1     9   180.000000    43.806480     1
  CG2D1O   CG2D1O    CG2O1    SG2D1     9     0.000000     0.711280     2
  CG2D1O   CG2D1O    CG2O1    SG2D1     9     0.000000     7.363840     3
  CG2D1O   CG2D1O    CG2O1    SG2D1     9     0.000000     1.422560     4
  CG2D1O   CG2D1O    CG2O5    CG321     9   180.000000     7.991440     2
  CG2D1O   CG2D1O    CG2O5    OG2D3     9   180.000000     0.167360     2
  CG2D1O   CG2D1O   CG2R51   CG2R51     9     0.000000     0.000000     2
  CG2D1O   CG2D1O   CG2R51   SG2R50     9   180.000000     0.543920     1
  CG2D1O   CG2D1O   CG2R51   SG2R50     9   180.000000     2.175680     2
  CG2D1O   CG2D1O   CG2R51   SG2R50     9   180.000000     0.376560     4
  CG2D1O   CG2D1O    CG321    CG321     9     0.000000     0.585760     1
  CG2D1O   CG2D1O    CG321    CG321     9   180.000000     4.978960     2
  CG2D1O   CG2D1O    CG321     HGA2     9     0.000000     0.000000     3
  CG2D1O   CG2D1O    CG331     HGA3     9     0.000000     0.000000     1
  CG2D1O   CG2D1O    CG331     HGA3     9     0.000000     0.000000     2
  CG2D1O   CG2D1O    CG331     HGA3     9     0.000000     0.000000     3
  CG2D1O   CG2D1O    NG2D1    NG2D1     9     0.000000     0.041840     2
  CG2D1O   CG2D1O    NG2D1    NG2D1     9     0.000000     5.020800     3
  CG2D1O   CG2D1O    NG2D1    NG2D1     9     0.000000     0.251040     4
  CG2D1O   CG2D1O    NG2D1    NG2D1     9     0.000000     7.614880     6
  CG2D1O   CG2D1O    NG2O1    OG2N1     9   180.000000     0.209200     2
  CG2D1O   CG2D1O    NG301    CG311     9     0.000000     1.840960     2
  CG2D1O   CG2D1O    NG301    CG311     9     0.000000     0.669440     3
  CG2D1O   CG2D1O    NG301    CG321     9   180.000000     2.677760     2
  CG2D1O   CG2D1O    NG301    CG321     9   180.000000     0.585760     4
  CG2D1O   CG2D1O    NG301    CG331     9   180.000000     4.225840     2
  CG2D1O   CG2D1O    NG301    CG331     9     0.000000     1.046000     4
  CG2D1O   CG2D1O    NG301    OG311     9     0.000000     0.376560     2
  CG2D1O   CG2D1O    NG301    OG311     9   180.000000     1.882800     4
  CG2D1O   CG2D1O    NG311   CG2D1O     9   180.000000     0.418400     2
  CG2D1O   CG2D1O    NG311   CG2R61     9   180.000000     4.560560     2
  CG2D1O   CG2D1O    NG311    CG311     9   180.000000     4.853440     2
  CG2D1O   CG2D1O    NG311    CG321     9     0.000000     0.000000     1
  CG2D1O   CG2D1O    NG311    CG321     9   180.000000    14.644000     2
  CG2D1O   CG2D1O    NG311    CG321     9     0.000000     3.514560     3
  CG2D1O   CG2D1O    NG311    SG3O2     9   180.000000     2.133840     2
  CG2D1O   CG2D1O    NG311    SG3O2     9   180.000000     2.510400     3
  CG2D1O   CG2D1O    NG311     HGP1     9   180.000000     0.418400     2
  CG2D1O   CG2D1O    NG311   HGPAM1     9   180.000000    11.087600     2
  CG2D1O   CG2D1O    NG321   HGPAM2     9     0.000000     7.112800     1
  CG2D1O   CG2D1O    NG321   HGPAM2     9   180.000000    12.803040     2
  CG2D1O   CG2D1O    NG321   HGPAM2     9   180.000000     0.962320     3
  CG2D1O   CG2D1O    NG321   HGPAM2     9     0.000000     0.502080     4
  CG2D1O   CG2D1O    SG311   CG2R61     9   180.000000     3.263520     1
  CG2D1O   CG2D1O    SG311   CG2R61     9     0.000000     0.292880     2
  CG2D1O   CG2D2O   CG2DC2    CG321     9   180.000000     7.573040     1
  CG2D1O   CG2D2O   CG2DC2    CG321     9   180.000000    16.066560     2
  CG2D1O   CG2D2O   CG2DC2     HGA4     9     0.000000     0.334720     2
  CG2D1O   CG2D2O   OG3R60    CG321     9   180.000000    18.995360     2
  CG2D1O   CG2DC1   CG2DC2   CG2DC2     9   180.000000     6.276000     1
  CG2D1O   CG2DC1   CG2DC2   CG2DC2     9   180.000000     4.184000     2
  CG2D1O   CG2DC1   CG2DC2   CG2DC2     9     0.000000     6.276000     3
  CG2D1O   CG2DC1   CG2DC2   CG2DC3     9   180.000000     6.276000     1
  CG2D1O   CG2DC1   CG2DC2   CG2DC3     9   180.000000     4.184000     2
  CG2D1O   CG2DC1   CG2DC2   CG2DC3     9     0.000000     6.276000     3
  CG2D1O   CG2DC1   CG2DC2    CG321     9   180.000000     4.602400     1
  CG2D1O   CG2DC1   CG2DC2    CG321     9   180.000000     2.928800     2
  CG2D1O   CG2DC1   CG2DC2    CG331     9   180.000000     4.602400     1
  CG2D1O   CG2DC1   CG2DC2    CG331     9   180.000000     2.928800     2
  CG2D1O   CG2DC1   CG2DC2     HGA4     9   180.000000     4.184000     2
  CG2D1O   CG2DC1    CG2N2    NG2P1     9     0.000000     2.468560     1
  CG2D1O   CG2DC1    CG2N2    NG2P1     9   180.000000     7.531200     2
  CG2D1O   CG2DC1    CG2O1    NG2D1     9     0.000000    25.234959     2
  CG2D1O   CG2DC1    CG2O1    NG2S0     9   180.000000     4.602400     1
  CG2D1O   CG2DC1    CG2O1    NG2S0     9   180.000000     8.158800     2
  CG2D1O   CG2DC1    CG2O1    NG2S1     9   180.000000     4.602400     1
  CG2D1O   CG2DC1    CG2O1    NG2S1     9   180.000000     8.158800     2
  CG2D1O   CG2DC1    CG2O1    NG2S2     9   180.000000     4.602400     1
  CG2D1O   CG2DC1    CG2O1    NG2S2     9   180.000000     8.158800     2
  CG2D1O   CG2DC1    CG2O1    OG2D1     9     0.000000     1.255200     1
  CG2D1O   CG2DC1    CG2O1    OG2D1     9   180.000000     8.158800     2
  CG2D1O   CG2DC1    CG2O2    OG2D1     9   180.000000    28.567097     2
  CG2D1O   CG2DC1    CG2O2    OG311     9   180.000000     4.784822     2
  CG2D1O   CG2DC1    CG2O3    OG2D2     9   180.000000     5.439200     2
  CG2D1O   CG2DC1    CG2O5   CG2DC1     9   180.000000    13.744440     2
  CG2D1O   CG2DC1    CG2O5   CG2R61     9     0.000000     3.054320     2
  CG2D1O   CG2DC1    CG2O5    CG321     9   180.000000     5.857600     2
  CG2D1O   CG2DC1    CG2O5    CG331     9   180.000000     5.857600     2
  CG2D1O   CG2DC1    CG2O5    OG2D3     9   180.000000     5.857600     2
  CG2D1O   CG2DC1   CG2R61   CG2R61     9   180.000000     3.138000     2
  CG2D1O   CG2DC1   CG2R61   CG2R61     9     0.000000     0.794960     4
  CG2D1O   CG2DC1   CG2RC0   CG2RC0     9   180.000000     3.138000     2
  CG2D1O   CG2DC1   CG2RC0   CG2RC0     9     0.000000     0.794960     4
  CG2D1O   CG2DC1   CG2RC0    NG2D1     9   180.000000     3.138000     2
  CG2D1O   CG2DC1   CG2RC0    NG2D1     9     0.000000     0.794960     4
  CG2D1O   CG2DC1    CG311    CG321     9     0.000000     2.092000     2
  CG2D1O   CG2DC1    CG311    CG321     9     0.000000     1.255200     3
  CG2D1O   CG2DC1    CG311     HGA1     9   180.000000     0.000000     3
  CG2D1O   CG2DC1    CG321    CG2D1     9   180.000000     0.000000     3
  CG2D1O   CG2DC1    CG321    CG311     9     0.000000     2.092000     2
  CG2D1O   CG2DC1    CG321    CG311     9     0.000000     1.255200     3
  CG2D1O   CG2DC1    CG321    CG321     9     0.000000     2.092000     2
  CG2D1O   CG2DC1    CG321    CG321     9     0.000000     1.255200     3
  CG2D1O   CG2DC1    CG321    SG311     9   180.000000     4.895280     2
  CG2D1O   CG2DC1    CG321    SG311     9     0.000000     1.631760     3
  CG2D1O   CG2DC1    CG321     HGA2     9   180.000000     0.000000     3
  CG2D1O   CG2DC1    CG324   NG2R52     9     0.000000     1.046000     2
  CG2D1O   CG2DC1    CG324   NG2R52     9     0.000000     0.251040     3
  CG2D1O   CG2DC1    CG324     HGA2     9   180.000000     0.000000     3
  CG2D1O   CG2DC1    CG331     HGA3     9   180.000000     1.255200     3
  CG2D1O   CG2DC2   CG2DC2    CG321     9   180.000000     2.343040     1
  CG2D1O   CG2DC2   CG2DC2    CG321     9   180.000000    29.288000     2
  CG2D1O   CG2DC2   CG2DC2     HGA4     9   180.000000    21.756800     2
  CG2D1O   CG2DC2    NG2D1    CG311     9   180.000000    21.338400     2
  CG2D1O    CG2O1    NG2D1    NG2D1     9   180.000000    12.091760     2
  CG2D1O    CG2O1    NG2S1    CG331     9     0.000000     6.694400     1
  CG2D1O    CG2O1    NG2S1    CG331     9   180.000000    10.460000     2
  CG2D1O    CG2O1    NG2S1     HGP1     9   180.000000    10.460000     2
  CG2D1O    CG2O1      NH1      CT3     9     0.000000     6.694400     1
  CG2D1O    CG2O1      NH1      CT3     9   180.000000    10.460000     2
  CG2D1O    CG2O1      NH1        H     9   180.000000    10.460000     2
  CG2D1O    CG2O1      NH1      CT1     9     0.000000     6.694400     1
  CG2D1O    CG2O1      NH1      CT1     9   180.000000    10.460000     2
  CG2D1O    CG2O1      NH1      CT2     9     0.000000     6.694400     1
  CG2D1O    CG2O1      NH1      CT2     9   180.000000    10.460000     2
  CG2D1O    CG2O1        N      CP1     9   180.000000    11.506000     2
  CG2D1O    CG2O1        N      CP1     9     0.000000     1.255200     4
  CG2D1O    CG2O1        N      CP3     9   180.000000    11.506000     2
  CG2D1O    CG2O1        N      CP3     9     0.000000     1.255200     4
  CG2D1O    CG2O5   CG2R61   CG2R61     9     0.000000     0.167360     2
  CG2D1O    CG2O5    CG321    CG321     9   180.000000     2.092000     1
  CG2D1O    CG2O5    CG321    CG321     9   180.000000     4.727920     2
  CG2D1O    CG2O5    CG321    CG321     9     0.000000     0.585760     3
  CG2D1O    CG2O5    CG321    CG321     9   180.000000     0.376560     6
  CG2D1O    CG2O5    CG321     HGA2     9     0.000000     0.418400     3
  CG2D1O   CG2R51   CG2R51   CG2R51     9   180.000000     0.000000     2
  CG2D1O   CG2R51   CG2R51    SG3O2     9     0.000000     0.000000     2
  CG2D1O   CG2R51   SG2R50   CG2R51     9   180.000000     2.008320     2
  CG2D1O   CG2R61   CG2R61   CG2DC1     9     0.000000     1.882800     2
  CG2D1O   CG2R61   CG2R61    CG2O5     9     0.000000     0.292880     2
  CG2D1O   CG2R61   CG2R61   CG2R61     9   180.000000    12.970400     2
  CG2D1O   CG2R61   CG2R61    CG321     9   180.000000    11.338640     2
  CG2D1O   CG2R61   CG2R61   CG3C31     9     0.000000     1.673600     2
  CG2D1O   CG2R61   CG2R61   NG2R60     9   180.000000    12.259120     2
  CG2D1O   CG2R61   CG2R61    HGR61     9   180.000000    10.041600     2
  CG2D1O   CG2R61   CG2R61    HGR62     9   180.000000    10.041600     2
  CG2D1O   CG2R61   NG2R61   CG2R61     9   180.000000     6.066800     2
  CG2D1O   CG2R61   NG2R61     HGP1     9   180.000000     3.305360     2
  CG2D1O   CG2R61   OG3R60   CG2R61     9   180.000000     8.911920     2
  CG2D1O    CG311    CG331     HGA3     9     0.000000     0.669440     3
  CG2D1O    CG314    CG321    CG321     9   180.000000     0.585760     1
  CG2D1O    CG314    CG321    CG321     9     0.000000     0.711280     2
  CG2D1O    CG314    CG321    CG321     9   180.000000     0.209200     3
  CG2D1O    CG314    CG321     HGA2     9     0.000000     0.836800     3
  CG2D1O    CG314    NG3P1    CG324     9     0.000000    14.141920     1
  CG2D1O    CG314    NG3P1    CG324     9     0.000000     7.949600     3
  CG2D1O    CG314    NG3P1    CG334     9   180.000000    12.175440     1
  CG2D1O    CG314    NG3P1    CG334     9     0.000000     0.167360     2
  CG2D1O    CG314    NG3P1    CG334     9     0.000000     1.673600     3
  CG2D1O    CG314    NG3P1     HGP2     9   180.000000     0.334720     3
  CG2D1O    CG321    CG321    CG311     9   180.000000     0.585760     1
  CG2D1O    CG321    CG321    CG311     9     0.000000     0.711280     2
  CG2D1O    CG321    CG321    CG311     9   180.000000     0.209200     3
  CG2D1O    CG321    CG321    CG321     9   180.000000     0.585760     1
  CG2D1O    CG321    CG321    CG321     9     0.000000     0.711280     2
  CG2D1O    CG321    CG321    CG321     9   180.000000     0.209200     3
  CG2D1O    CG321    CG321    NG301     9   180.000000     1.213360     3
  CG2D1O    CG321    CG321    NG301     9   180.000000     4.769760     4
  CG2D1O    CG321    CG321     HGA2     9     0.000000     0.836800     3
  CG2D1O    NG2D1    NG2D1    CG311     9   180.000000    22.844640     2
  CG2D1O    NG2D1    NG2D1    CG311     9   180.000000     2.594080     3
  CG2D1O    NG2D1    NG2D1    CG311     9     0.000000     0.711280     4
  CG2D1O    NG2D1    NG2D1    CG321     9   180.000000    35.020080     2
  CG2D1O    NG301    OG311     HGP1     9   180.000000     2.761440     3
  CG2D1O    NG301    OG311     HGP1     9   180.000000     0.376560     4
  CG2D1O    NG301    OG311     HGP1     9     0.000000     0.878640     6
  CG2D1O    NG311    SG3O2   CG2R51     9   180.000000     2.677760     1
  CG2D1O    NG311    SG3O2   CG2R51     9   180.000000     3.598240     2
  CG2D1O    NG311    SG3O2   CG2R51     9     0.000000     3.012480     3
  CG2D1O    NG311    SG3O2    OG2P1     9     0.000000     8.493520     3
  CG2D1O      CT1        C        N     9   180.000000    11.506000     2
  CG2D1O      CT1        C        N     9     0.000000     1.255200     4
  CG2DC1   CG251O   CG2R53   NG2R51     9   180.000000     0.418400     2
  CG2DC1   CG251O   CG2R53   NG2R53     9   180.000000     0.836800     2
  CG2DC1   CG251O   CG2R53    OG2D1     9   180.000000     3.347200     2
  CG2DC1   CG251O   NG2R50   CG2R53     9   180.000000     7.447520     2
  CG2DC1   CG251O   NG2R53   CG2R53     9   180.000000     4.184000     2
  CG2DC1   CG251O   NG2R53     HGP1     9   180.000000     1.673600     2
  CG2DC1   CG251O   OG3C51   CG2R53     9   180.000000     7.991440     2
  CG2DC1   CG251O   OG3C51   CG2R53     9   180.000000     1.506240     3
  CG2DC1   CG251O    SG311   CG2R53     9     0.000000     0.836800     3
  CG2DC1   CG25C1   CG2R53   NG2R51     9   180.000000     0.418400     2
  CG2DC1   CG25C1   CG2R53    OG2D1     9   180.000000     4.184000     2
  CG2DC1   CG25C1   CG2RC0   CG2R61     9   180.000000     0.418400     2
  CG2DC1   CG25C1   CG2RC0   CG2RC0     9   180.000000     0.418400     2
  CG2DC1   CG25C1   CG3C52   CG2RC0     9     0.000000     0.083680     2
  CG2DC1   CG25C1   CG3C52   CG2RC0     9   180.000000     1.631760     3
  CG2DC1   CG25C1   CG3C52     HGA2     9     0.000000     0.000000     3
  CG2DC1   CG2D1O   CG2D2O   CG2DC2     9   180.000000     4.142160     1
  CG2DC1   CG2D1O   CG2D2O   CG2DC2     9     0.000000     0.836800     2
  CG2DC1   CG2D1O   CG2D2O   CG2DC2     9   180.000000     7.907760     3
  CG2DC1   CG2D1O   CG2D2O   OG3R60     9   180.000000     4.727920     2
  CG2DC1   CG2D1O   CG2D2O   OG3R60     9   180.000000     2.928800     3
  CG2DC1   CG2D1O    CG2O1    NG2S1     9   180.000000     0.095814     1
  CG2DC1   CG2D1O    CG2O1    NG2S1     9   180.000000     7.011966     2
  CG2DC1   CG2D1O    CG2O1    NG2S1     9     0.000000     0.423421     3
  CG2DC1   CG2D1O    CG2O1    NG2S1     9     0.000000     0.498314     4
  CG2DC1   CG2D1O    CG2O1    OG2D1     9     0.000000     3.884426     1
  CG2DC1   CG2D1O    CG2O1    OG2D1     9   180.000000     9.211494     2
  CG2DC1   CG2D1O    CG2O1    OG2D1     9   180.000000     0.108784     3
  CG2DC1   CG2D1O    CG2O1    OG2D1     9     0.000000     1.703306     4
  CG2DC1   CG2D1O    CG2O1        N     9     0.000000     0.000000     1
  CG2DC1   CG2D1O    CG2O3    OG2D2     9   180.000000    10.794720     2
  CG2DC1   CG2D1O    CG2O3    OG2D2     9   180.000000     1.589920     4
  CG2DC1   CG2D1O    CG2O5   CG2DC1     9   180.000000     1.738870     2
  CG2DC1   CG2D1O    CG2O5   CG2R61     9   180.000000    12.217280     2
  CG2DC1   CG2D1O    CG2O5    OG2D3     9   180.000000     0.165686     2
  CG2DC1   CG2D1O   CG2R61   CG2R61     9   180.000000     2.677760     2
  CG2DC1   CG2D1O   CG2R61   CG2R61     9   180.000000     1.380720     4
  CG2DC1   CG2D1O   CG2R61   CG2R61     9     0.000000     2.133840     6
  CG2DC1   CG2D1O    CG321    CG321     9     0.000000     8.702720     1
  CG2DC1   CG2D1O    CG321    CG321     9     0.000000     0.418400     2
  CG2DC1   CG2D1O    CG321     HGA2     9   180.000000     0.000000     3
  CG2DC1   CG2D1O    CG331     HGA3     9   180.000000     1.255200     3
  CG2DC1   CG2D1O    NG2D1   CG2DC1     9   180.000000    50.208000     2
  CG2DC1   CG2D1O    NG2D1    CG2N2     9   180.000000    23.365966     2
  CG2DC1   CG2D1O    NG2D1   CG2R64     9   180.000000     7.573040     2
  CG2DC1   CG2D1O    NG2P1   CG2R53     9   180.000000    12.552000     2
  CG2DC1   CG2D1O    NG2P1     HGP2     9   180.000000     7.238320     2
  CG2DC1   CG2D1O   NG2R43   CG2R53     9   180.000000     0.585760     1
  CG2DC1   CG2D1O   NG2R43   CG2R53     9   180.000000     4.895280     2
  CG2DC1   CG2D1O   NG2R43   CG2R53     9     0.000000     1.631760     4
  CG2DC1   CG2D1O   NG2R43   CG3RC1     9     0.000000     1.799120     1
  CG2DC1   CG2D1O   NG2R43   CG3RC1     9   180.000000     5.857600     2
  CG2DC1   CG2D1O    NG2S0    CG2O1     9     0.000000    32.049440     1
  CG2DC1   CG2D1O    NG2S0    CG2O1     9   180.000000    10.334480     2
  CG2DC1   CG2D1O    NG2S0    CG311     9   180.000000    11.506000     1
  CG2DC1   CG2D1O    NG2S0    CG311     9     0.000000     0.460240     2
  CG2DC1   CG2D1O    NG2S1    CG2O1     9   180.000000    17.502927     1
  CG2DC1   CG2D1O    NG2S1    CG2O1     9   180.000000     9.839931     2
  CG2DC1   CG2D1O    NG2S1     HGP1     9   180.000000    11.148268     2
  CG2DC1   CG2D1O    NG2S1        C     9   180.000000    17.502927     1
  CG2DC1   CG2D1O    NG2S1        C     9   180.000000     9.839931     2
  CG2DC1   CG2D1O    NG301   CG2D1O     9   180.000000     2.092000     2
  CG2DC1   CG2D1O    NG301    CG321     9   180.000000     4.518720     2
  CG2DC1   CG2D1O    NG301    CG331     9     0.000000     1.129680     2
  CG2DC1   CG2D1O    NG301   CG3C51     9   180.000000     0.418400     2
  CG2DC1   CG2D1O    NG311   CG2D1O     9   180.000000     2.092000     2
  CG2DC1   CG2D1O    NG311    CG311     9   180.000000    13.263280     2
  CG2DC1   CG2D1O    NG311    CG321     9   180.000000     8.200640     2
  CG2DC1   CG2D1O    NG311   HGPAM1     9   180.000000     0.418400     2
  CG2DC1   CG2D1O    NG321   HGPAM2     9     0.000000     7.112800     1
  CG2DC1   CG2D1O    NG321   HGPAM2     9   180.000000    12.803040     2
  CG2DC1   CG2D1O    NG321   HGPAM2     9   180.000000     0.962320     3
  CG2DC1   CG2D1O    NG321   HGPAM2     9     0.000000     0.502080     4
  CG2DC1   CG2D1O    OG301    CG331     9   180.000000     3.347200     1
  CG2DC1   CG2D1O    OG301    CG331     9   180.000000    12.552000     2
  CG2DC1   CG2D1O    OG301    CG331     9   180.000000     4.602400     3
  CG2DC1   CG2D1O    OG311     HGP1     9   180.000000     2.704119     1
  CG2DC1   CG2D1O    OG311     HGP1     9   180.000000    14.275808     2
  CG2DC1   CG2D1O    OG311     HGP1     9   180.000000     0.000418     3
  CG2DC1   CG2D1O   OG3R60    CG311     9     0.000000     8.368000     2
  CG2DC1   CG2D1O   OG3R60    CG321     9     0.000000     8.368000     2
  CG2DC1   CG2D1O    SG311    CG311     9   180.000000     0.000000     1
  CG2DC1   CG2D1O    SG311    CG311     9     0.000000     0.000000     2
  CG2DC1   CG2D2O   CG2D2O    NG301     9   180.000000    10.752880     2
  CG2DC1   CG2D2O   CG2D2O    NG311     9     0.000000     1.380720     2
  CG2DC1   CG2D2O   CG2D2O     HGA4     9   180.000000    19.413760     2
  CG2DC1   CG2D2O   CG2R61   CG2R61     9   180.000000     3.640080     2
  CG2DC1   CG2D2O   CG2R61   CG2R61     9   180.000000     0.209200     4
  CG2DC1   CG2D2O   CG2R61   NG2R61     9   180.000000     4.978960     2
  CG2DC1   CG2D2O   CG2R61   NG2R61     9   180.000000     4.058480     4
  CG2DC1   CG2D2O    NG2O1    OG2N1     9   180.000000    26.233680     2
  CG2DC1   CG2D2O    NG321   HGPAM2     9     0.000000     1.129680     3
  CG2DC1   CG2D2O    OG311     HGP1     9     0.000000     2.217520     1
  CG2DC1   CG2D2O    OG311     HGP1     9     0.000000     1.087840     2
  CG2DC1   CG2D2O    OG311     HGP1     9   180.000000     1.548080     3
  CG2DC1   CG2D2O    OG311     HGP1     9     0.000000     1.966480     6
  CG2DC1   CG2DC1   CG2DC2   CG2D2O     9   180.000000     6.276000     1
  CG2DC1   CG2DC1   CG2DC2   CG2D2O     9   180.000000     4.184000     2
  CG2DC1   CG2DC1   CG2DC2   CG2D2O     9     0.000000     6.276000     3
  CG2DC1   CG2DC1   CG2DC2   CG2DC1     9   180.000000     2.092000     1
  CG2DC1   CG2DC1   CG2DC2   CG2DC1     9     0.000000     8.368000     2
  CG2DC1   CG2DC1   CG2DC2   CG2DC1     9     0.000000     4.184000     3
  CG2DC1   CG2DC1   CG2DC2   CG2DC2     9   180.000000     2.092000     1
  CG2DC1   CG2DC1   CG2DC2   CG2DC2     9     0.000000     8.368000     2
  CG2DC1   CG2DC1   CG2DC2   CG2DC2     9     0.000000     4.184000     3
  CG2DC1   CG2DC1   CG2DC2   CG2DC3     9   180.000000     2.092000     1
  CG2DC1   CG2DC1   CG2DC2   CG2DC3     9     0.000000     8.368000     2
  CG2DC1   CG2DC1   CG2DC2   CG2DC3     9     0.000000     4.184000     3
  CG2DC1   CG2DC1   CG2DC2    CG2O3     9   180.000000     3.221680     1
  CG2DC1   CG2DC1   CG2DC2    CG2O3     9     0.000000    14.225600     2
  CG2DC1   CG2DC1   CG2DC2    CG2O3     9     0.000000     4.142160     3
  CG2DC1   CG2DC1   CG2DC2    CG2O5     9   180.000000     3.204944     1
  CG2DC1   CG2DC1   CG2DC2    CG2O5     9     0.000000    14.230202     2
  CG2DC1   CG2DC1   CG2DC2    CG2O5     9     0.000000     4.152620     3
  CG2DC1   CG2DC1   CG2DC2    CG301     9     0.000000     3.765600     1
  CG2DC1   CG2DC1   CG2DC2    CG301     9   180.000000     8.786400     2
  CG2DC1   CG2DC1   CG2DC2    CG301     9     0.000000     0.920480     3
  CG2DC1   CG2DC1   CG2DC2    CG301     9   180.000000     1.046000     5
  CG2DC1   CG2DC1   CG2DC2    CG301     9     0.000000     0.418400     6
  CG2DC1   CG2DC1   CG2DC2    CG311     9     0.000000     3.765600     1
  CG2DC1   CG2DC1   CG2DC2    CG311     9   180.000000     8.786400     2
  CG2DC1   CG2DC1   CG2DC2    CG311     9     0.000000     0.920480     3
  CG2DC1   CG2DC1   CG2DC2    CG311     9   180.000000     1.046000     5
  CG2DC1   CG2DC1   CG2DC2    CG311     9     0.000000     0.418400     6
  CG2DC1   CG2DC1   CG2DC2    CG321     9   180.000000     4.602400     1
  CG2DC1   CG2DC1   CG2DC2    CG321     9   180.000000     2.928800     2
  CG2DC1   CG2DC1   CG2DC2    CG331     9   180.000000     4.602400     1
  CG2DC1   CG2DC1   CG2DC2    CG331     9   180.000000     2.928800     2
  CG2DC1   CG2DC1   CG2DC2    NG2D1     9     0.000000     1.999952     1
  CG2DC1   CG2DC1   CG2DC2    NG2D1     9   180.000000     9.258355     2
  CG2DC1   CG2DC1   CG2DC2    NG2D1     9     0.000000     3.904509     3
  CG2DC1   CG2DC1   CG2DC2    NG2D1     9     0.000000     3.471465     4
  CG2DC1   CG2DC1   CG2DC2     HGA4     9   180.000000     4.184000     2
  CG2DC1   CG2DC1    CG2O1    NG2S0     9     0.000000     2.928800     1
  CG2DC1   CG2DC1    CG2O1    NG2S0     9   180.000000     5.020800     2
  CG2DC1   CG2DC1    CG2O1    NG2S0     9     0.000000     0.418400     3
  CG2DC1   CG2DC1    CG2O1    NG2S0     9     0.000000     0.627600     4
  CG2DC1   CG2DC1    CG2O1    NG2S1     9     0.000000     2.928800     1
  CG2DC1   CG2DC1    CG2O1    NG2S1     9   180.000000     5.020800     2
  CG2DC1   CG2DC1    CG2O1    NG2S1     9     0.000000     0.418400     3
  CG2DC1   CG2DC1    CG2O1    NG2S1     9     0.000000     0.627600     4
  CG2DC1   CG2DC1    CG2O1    OG2D1     9   180.000000     2.928800     1
  CG2DC1   CG2DC1    CG2O1    OG2D1     9   180.000000     5.020800     2
  CG2DC1   CG2DC1    CG2O1    OG2D1     9   180.000000     0.418400     3
  CG2DC1   CG2DC1    CG2O1    OG2D1     9     0.000000     0.836800     4
  CG2DC1   CG2DC1    CG2O2    OG2D1     9   180.000000    28.576720     2
  CG2DC1   CG2DC1    CG2O2    OG302     9     0.000000    17.489120     2
  CG2DC1   CG2DC1    CG2O2    OG311     9   180.000000     4.769760     2
  CG2DC1   CG2DC1    CG2O3    OG2D2     9   180.000000     5.439200     2
  CG2DC1   CG2DC1    CG2O4    OG2D1     9   180.000000     4.184000     2
  CG2DC1   CG2DC1    CG2O4    HGR52     9   180.000000    13.388800     2
  CG2DC1   CG2DC1    CG2O5   CG2D1O     9   180.000000     0.841402     2
  CG2DC1   CG2DC1    CG2O5   CG2DC1     9   180.000000     4.229606     2
  CG2DC1   CG2DC1    CG2O5    CG2O5     9   180.000000     0.052300     2
  CG2DC1   CG2DC1    CG2O5    CG311     9   180.000000     5.857600     2
  CG2DC1   CG2DC1    CG2O5    CG321     9   180.000000     5.857600     2
  CG2DC1   CG2DC1    CG2O5    OG2D3     9   180.000000     5.857600     2
  CG2DC1   CG2DC1    CG2O5    SG2D1     9     0.000000     0.000000     2
  CG2DC1   CG2DC1    CG2O5    SG3O3     9   180.000000    25.355040     2
  CG2DC1   CG2DC1   CG2R51   CG2R51     9   180.000000     3.179840     2
  CG2DC1   CG2DC1   CG2R51   CG2R52     9   180.000000     3.179840     2
  CG2DC1   CG2DC1   CG2R51   NG2R50     9   180.000000     8.330762     1
  CG2DC1   CG2DC1   CG2R51   NG2R50     9   180.000000     5.547566     2
  CG2DC1   CG2DC1   CG2R51   NG2R50     9     0.000000     0.437646     4
  CG2DC1   CG2DC1   CG2R51   NG2R51     9   180.000000     5.606560     1
  CG2DC1   CG2DC1   CG2R51   NG2R51     9   180.000000     1.255200     2
  CG2DC1   CG2DC1   CG2R51   NG2R51     9   180.000000     0.460240     4
  CG2DC1   CG2DC1   CG2R52   CG2R52     9   180.000000     3.179840     2
  CG2DC1   CG2DC1   CG2R52   NG2R50     9   180.000000     8.326160     1
  CG2DC1   CG2DC1   CG2R52   NG2R50     9   180.000000     5.564720     2
  CG2DC1   CG2DC1   CG2R52   NG2R50     9     0.000000     0.418400     4
  CG2DC1   CG2DC1   CG2R53   NG2R50     9   180.000000     3.096160     1
  CG2DC1   CG2DC1   CG2R53   NG2R50     9     0.000000     0.000000     2
  CG2DC1   CG2DC1   CG2R53   NG2R50     9   180.000000     0.962320     4
  CG2DC1   CG2DC1   CG2R53   NG2R52     9   180.000000     6.861760     1
  CG2DC1   CG2DC1   CG2R53   NG2R52     9   180.000000     1.840960     2
  CG2DC1   CG2DC1   CG2R53   NG2R52     9   180.000000     0.209200     4
  CG2DC1   CG2DC1   CG2R53   SG2R50     9     0.000000     0.627600     1
  CG2DC1   CG2DC1   CG2R53   SG2R50     9   180.000000    11.380480     2
  CG2DC1   CG2DC1   CG2R53   SG2R50     9     0.000000     0.920480     4
  CG2DC1   CG2DC1   CG2R61   CG2R61     9   180.000000     3.138000     2
  CG2DC1   CG2DC1   CG2R61   CG2R61     9     0.000000     0.794960     4
  CG2DC1   CG2DC1   CG2R61   CG2R66     9   180.000000     3.138000     2
  CG2DC1   CG2DC1   CG2R61   CG2R66     9     0.000000     0.794960     4
  CG2DC1   CG2DC1   CG2R61   NG2R60     9   180.000000     1.715440     2
  CG2DC1   CG2DC1   CG2R61   NG2R60     9   180.000000     4.393200     3
  CG2DC1   CG2DC1   CG2R61   NG2R60     9     0.000000     3.807440     4
  CG2DC1   CG2DC1   CG2R61   NG2RC0     9   180.000000     1.380720     2
  CG2DC1   CG2DC1   CG2R61   NG2RC0     9     0.000000     2.635920     4
  CG2DC1   CG2DC1   CG2R61   NG2RC0     9     0.000000     0.669440     6
  CG2DC1   CG2DC1   CG2R62   CG2R62     9   180.000000     3.138000     2
  CG2DC1   CG2DC1   CG2R62   CG2R62     9     0.000000     0.794960     4
  CG2DC1   CG2DC1   CG2R62   CG2R63     9   180.000000     3.138000     2
  CG2DC1   CG2DC1   CG2R62   CG2R63     9     0.000000     0.794960     4
  CG2DC1   CG2DC1   CG2R62   NG2R61     9   180.000000     7.322000     2
  CG2DC1   CG2DC1   CG2R62   NG2R61     9     0.000000     1.882800     4
  CG2DC1   CG2DC1   CG2R62   NG2R61     9     0.000000     3.556400     6
  CG2DC1   CG2DC1   CG2R64   NG2R62     9   180.000000     5.606560     2
  CG2DC1   CG2DC1   CG2R64   NG2R62     9     0.000000     0.543920     4
  CG2DC1   CG2DC1    CG301    CG1N1     9   180.000000    10.501840     2
  CG2DC1   CG2DC1    CG301    CG1N1     9   180.000000     0.000000     3
  CG2DC1   CG2DC1    CG301    CG301     9     0.000000     2.092000     2
  CG2DC1   CG2DC1    CG301    CG301     9     0.000000     1.255200     3
  CG2DC1   CG2DC1    CG301    CG311     9     0.000000     2.092000     2
  CG2DC1   CG2DC1    CG301    CG311     9     0.000000     1.255200     3
  CG2DC1   CG2DC1    CG301    CG321     9     0.000000     2.092000     2
  CG2DC1   CG2DC1    CG301    CG321     9     0.000000     1.255200     3
  CG2DC1   CG2DC1    CG301    CG331     9     0.000000     2.092000     2
  CG2DC1   CG2DC1    CG301    CG331     9     0.000000     1.673600     3
  CG2DC1   CG2DC1    CG301    NG311     9     0.000000     0.000000     2
  CG2DC1   CG2DC1    CG301    NG311     9   180.000000     0.376560     3
  CG2DC1   CG2DC1    CG301   OG3C61     9   180.000000     2.008320     3
  CG2DC1   CG2DC1    CG301   OG3C61     9     0.000000     2.594080     4
  CG2DC1   CG2DC1    CG311    CG2D1     9   180.000000     0.000000     3
  CG2DC1   CG2DC1    CG311   CG2DC1     9   180.000000     0.000000     3
  CG2DC1   CG2DC1    CG311    CG2O1     9     0.000000     0.669440     2
  CG2DC1   CG2DC1    CG311    CG2O1     9   180.000000    11.798880     3
  CG2DC1   CG2DC1    CG311    CG2O2     9   180.000000    24.852960     3
  CG2DC1   CG2DC1    CG311    CG2O2     9   180.000000     4.351360     6
  CG2DC1   CG2DC1    CG311    CG2O3     9   180.000000    34.727200     3
  CG2DC1   CG2DC1    CG311    CG2O3     9   180.000000     9.414000     4
  CG2DC1   CG2DC1    CG311    CG311     9     0.000000     2.092000     2
  CG2DC1   CG2DC1    CG311    CG311     9     0.000000     1.255200     3
  CG2DC1   CG2DC1    CG311    CG321     9     0.000000     2.092000     2
  CG2DC1   CG2DC1    CG311    CG321     9     0.000000     1.255200     3
  CG2DC1   CG2DC1    CG311    CG331     9     0.000000     2.092000     2
  CG2DC1   CG2DC1    CG311    CG331     9     0.000000     1.255200     3
  CG2DC1   CG2DC1    CG311   CG3RC1     9   180.000000     3.681920     2
  CG2DC1   CG2DC1    CG311   CG3RC1     9     0.000000     3.263520     3
  CG2DC1   CG2DC1    CG311   CG3RC1     9   180.000000     0.585760     6
  CG2DC1   CG2DC1    CG311    NG2S0     9   180.000000     2.008320     2
  CG2DC1   CG2DC1    CG311    NG2S0     9     0.000000     7.196480     3
  CG2DC1   CG2DC1    CG311    NG2S1     9     0.000000     0.711280     2
  CG2DC1   CG2DC1    CG311    NG2S1     9   180.000000     9.497680     3
  CG2DC1   CG2DC1    CG311    NG301     9     0.000000     0.000000     2
  CG2DC1   CG2DC1    CG311    NG301     9   180.000000     7.363840     3
  CG2DC1   CG2DC1    CG311    NG311     9     0.000000     4.267680     2
  CG2DC1   CG2DC1    CG311    NG311     9     0.000000     2.510400     3
  CG2DC1   CG2DC1    CG311    OG311     9   180.000000     7.949600     1
  CG2DC1   CG2DC1    CG311    OG311     9   180.000000     1.673600     2
  CG2DC1   CG2DC1    CG311    OG311     9   180.000000     2.510400     3
  CG2DC1   CG2DC1    CG311   OG3R60     9     0.000000     2.928800     3
  CG2DC1   CG2DC1    CG311     HGA1     9     0.000000     0.125520     3
  CG2DC1   CG2DC1    CG321   CG2DC1     9   180.000000     0.000000     3
  CG2DC1   CG2DC1    CG321    CG314     9     0.000000     0.251040     2
  CG2DC1   CG2DC1    CG321    CG314     9   180.000000    10.878400     3
  CG2DC1   CG2DC1    CG321    CG321     9     0.000000     2.092000     2
  CG2DC1   CG2DC1    CG321    CG321     9     0.000000     1.255200     3
  CG2DC1   CG2DC1    CG321    CG324     9     0.000000     0.794960     2
  CG2DC1   CG2DC1    CG321    CG324     9   180.000000     3.932960     3
  CG2DC1   CG2DC1    CG321    CG331     9     0.000000     2.092000     2
  CG2DC1   CG2DC1    CG321    CG331     9     0.000000     1.255200     3
  CG2DC1   CG2DC1    CG321    NG301     9     0.000000     0.543920     2
  CG2DC1   CG2DC1    CG321    NG301     9     0.000000     8.242480     3
  CG2DC1   CG2DC1    CG321    NG311     9   180.000000     0.711280     2
  CG2DC1   CG2DC1    CG321    NG311     9     0.000000     0.000000     3
  CG2DC1   CG2DC1    CG321    OG311     9   180.000000     7.949600     1
  CG2DC1   CG2DC1    CG321    OG311     9   180.000000     1.673600     2
  CG2DC1   CG2DC1    CG321    OG311     9   180.000000     2.510400     3
  CG2DC1   CG2DC1    CG321   OG3C61     9     0.000000     2.928800     3
  CG2DC1   CG2DC1    CG321   OG3R60     9     0.000000     2.928800     3
  CG2DC1   CG2DC1    CG321    SG311     9   180.000000     0.711280     2
  CG2DC1   CG2DC1    CG321    SG311     9   180.000000     4.142160     3
  CG2DC1   CG2DC1    CG321    SG311     9   180.000000     3.347200     4
  CG2DC1   CG2DC1    CG321     HGA2     9     0.000000     0.125520     3
  CG2DC1   CG2DC1    CG324    NG3P2     9   180.000000    19.413760     2
  CG2DC1   CG2DC1    CG324    NG3P2     9     0.000000     1.631760     3
  CG2DC1   CG2DC1    CG324     HGA2     9     0.000000     0.125520     3
  CG2DC1   CG2DC1    CG331     HGA3     9   180.000000     1.255200     3
  CG2DC1   CG2DC1   CG3RC1   CG3RC1     9     0.000000     0.000000     2
  CG2DC1   CG2DC1   CG3RC1   CG3RC1     9     0.000000     3.096160     3
  CG2DC1   CG2DC1   CG3RC1   OG3C51     9   180.000000     1.297040     2
  CG2DC1   CG2DC1   CG3RC1   OG3C51     9     0.000000     0.962320     3
  CG2DC1   CG2DC1   CG3RC1     HGA1     9     0.000000     0.000000     3
  CG2DC1   CG2DC2   CG2DC2   CG2DC1     9   180.000000     2.343040     1
  CG2DC1   CG2DC2   CG2DC2   CG2DC1     9   180.000000    29.288000     2
  CG2DC1   CG2DC2   CG2DC2    CG2O1     9   180.000000     2.343040     1
  CG2DC1   CG2DC2   CG2DC2    CG2O1     9   180.000000    29.288000     2
  CG2DC1   CG2DC2   CG2DC2    CG2O3     9   180.000000     2.343040     1
  CG2DC1   CG2DC2   CG2DC2    CG2O3     9   180.000000    29.288000     2
  CG2DC1   CG2DC2   CG2DC2    CG2O4     9   180.000000     2.343040     1
  CG2DC1   CG2DC2   CG2DC2    CG2O4     9   180.000000    29.288000     2
  CG2DC1   CG2DC2   CG2DC2    CG2O5     9   180.000000     2.343040     1
  CG2DC1   CG2DC2   CG2DC2    CG2O5     9   180.000000    29.288000     2
  CG2DC1   CG2DC2   CG2DC2   CG2R51     9   180.000000     2.612071     1
  CG2DC1   CG2DC2   CG2DC2   CG2R51     9   180.000000    29.050349     2
  CG2DC1   CG2DC2   CG2DC2   CG2R52     9   180.000000     2.594080     1
  CG2DC1   CG2DC2   CG2DC2   CG2R52     9   180.000000    29.036960     2
  CG2DC1   CG2DC2   CG2DC2    CG301     9   180.000000     2.343040     1
  CG2DC1   CG2DC2   CG2DC2    CG301     9   180.000000    29.288000     2
  CG2DC1   CG2DC2   CG2DC2    CG311     9   180.000000     2.343040     1
  CG2DC1   CG2DC2   CG2DC2    CG311     9   180.000000    29.288000     2
  CG2DC1   CG2DC2   CG2DC2    CG321     9   180.000000     2.343040     1
  CG2DC1   CG2DC2   CG2DC2    CG321     9   180.000000    29.288000     2
  CG2DC1   CG2DC2   CG2DC2    CG331     9   180.000000     2.343040     1
  CG2DC1   CG2DC2   CG2DC2    CG331     9   180.000000    29.288000     2
  CG2DC1   CG2DC2   CG2DC2   CG3RC1     9   180.000000     0.000000     1
  CG2DC1   CG2DC2   CG2DC2   CG3RC1     9   180.000000    12.886720     2
  CG2DC1   CG2DC2   CG2DC2     HGA4     9   180.000000    21.756800     2
  CG2DC1   CG2DC2   CG2DC3     HGA5     9   180.000000    20.920000     2
  CG2DC1   CG2DC2    CG2O1    NG2S1     9   180.000000     0.167360     1
  CG2DC1   CG2DC2    CG2O1    NG2S1     9   180.000000    13.974560     2
  CG2DC1   CG2DC2    CG2O1    NG2S1     9     0.000000     2.384880     3
  CG2DC1   CG2DC2    CG2O1    NG2S1     9     0.000000     2.217520     4
  CG2DC1   CG2DC2    CG2O1    OG2D1     9     0.000000     2.803280     1
  CG2DC1   CG2DC2    CG2O1    OG2D1     9   180.000000    14.936880     2
  CG2DC1   CG2DC2    CG2O1    OG2D1     9   180.000000     6.987280     3
  CG2DC1   CG2DC2    CG2O1    OG2D1     9   180.000000     4.727920     4
  CG2DC1   CG2DC2    CG2O3    OG2D2     9     0.000000     0.794960     2
  CG2DC1   CG2DC2    CG2O5   CG2DC2     9   180.000000    28.451200     2
  CG2DC1   CG2DC2    CG2O5   CG2R51     9   180.000000     4.538385     2
  CG2DC1   CG2DC2    CG2O5    OG2D3     9   180.000000     5.857600     2
  CG2DC1   CG2DC2    CG2O5    SG3O3     9   180.000000    15.229760     2
  CG2DC1   CG2DC2    CG301    CG321     9     0.000000     1.255200     3
  CG2DC1   CG2DC2    CG301    CG331     9     0.000000     1.255200     3
  CG2DC1   CG2DC2    CG311   CG2DC2     9     0.000000     4.100320     3
  CG2DC1   CG2DC2    CG311   CG2DC2     9   180.000000     2.301200     4
  CG2DC1   CG2DC2    CG311    CG311     9     0.000000     1.255200     3
  CG2DC1   CG2DC2    CG311     HGA1     9   180.000000     0.000000     3
  CG2DC1   CG2DC2    CG321   CG2DC2     9   180.000000     0.000000     2
  CG2DC1   CG2DC2    CG321   CG2DC2     9     0.000000    11.757040     3
  CG2DC1   CG2DC2    CG321    CG2O1     9     0.000000     6.359680     3
  CG2DC1   CG2DC2    CG321     HGA2     9   180.000000     1.255200     3
  CG2DC1   CG2DC2    CG331     HGA3     9   180.000000     1.255200     3
  CG2DC1   CG2DC2    NG2D1    CG2N2     9     0.000000     0.000000     2
  CG2DC1   CG2DC2    NG2D1    CG311     9   180.000000     5.062640     2
  CG2DC1   CG2DC2    NG2D1     HGP1     9   180.000000    49.867422     2
  CG2DC1   CG2DC2    NG2P1    CG334     9   180.000000    29.288000     2
  CG2DC1   CG2DC2    NG2P1     HGP2     9   180.000000    20.920000     2
  CG2DC1    CG2N2    NG2P1    CG324     9     0.000000     1.297040     2
  CG2DC1    CG2N2    NG2P1     HGP2     9     0.000000     1.297040     2
  CG2DC1    CG2O1    NG2D1    CG2N2     9   180.000000    27.196000     2
  CG2DC1    CG2O1    NG2S0   CG2D2O     9   180.000000    12.342800     1
  CG2DC1    CG2O1    NG2S0   CG2D2O     9   180.000000     0.836800     2
  CG2DC1    CG2O1    NG2S0    CG311     9     0.000000    16.024720     1
  CG2DC1    CG2O1    NG2S0    CG311     9   180.000000    17.363600     2
  CG2DC1    CG2O1    NG2S0    CG321     9     0.000000    12.008080     1
  CG2DC1    CG2O1    NG2S0    CG321     9   180.000000    32.802560     2
  CG2DC1    CG2O1    NG2S0    CG331     9   180.000000     7.322000     1
  CG2DC1    CG2O1    NG2S0    CG331     9     0.000000     0.585760     2
  CG2DC1    CG2O1    NG2S0   CG3C52     9     0.000000     3.849280     1
  CG2DC1    CG2O1    NG2S0   CG3C52     9   180.000000    24.183520     2
  CG2DC1    CG2O1    NG2S0   CG3RC1     9     0.000000     1.840960     1
  CG2DC1    CG2O1    NG2S0   CG3RC1     9     0.000000     0.418400     2
  CG2DC1    CG2O1    NG2S1   CG2D1O     9     0.000000     1.631760     1
  CG2DC1    CG2O1    NG2S1   CG2D1O     9   180.000000    13.807200     2
  CG2DC1    CG2O1    NG2S1    CG2O1     9     0.000000     3.347200     1
  CG2DC1    CG2O1    NG2S1    CG2O1     9     0.000000     0.000000     2
  CG2DC1    CG2O1    NG2S1   CG2R61     9     0.000000     6.694400     1
  CG2DC1    CG2O1    NG2S1   CG2R61     9   180.000000    10.460000     2
  CG2DC1    CG2O1    NG2S1    CG321     9     0.000000     6.694400     1
  CG2DC1    CG2O1    NG2S1    CG321     9   180.000000    10.460000     2
  CG2DC1    CG2O1    NG2S1    CG331     9     0.000000     6.694400     1
  CG2DC1    CG2O1    NG2S1    CG331     9   180.000000    10.460000     2
  CG2DC1    CG2O1    NG2S1     HGP1     9   180.000000    10.460000     2
  CG2DC1    CG2O1    NG2S2     HGP1     9   180.000000    10.460000     2
  CG2DC1    CG2O2    OG302    CG311     9     0.000000     0.460240     1
  CG2DC1    CG2O2    OG302    CG311     9     0.000000     0.000000     2
  CG2DC1    CG2O2    OG302    CG311     9   180.000000     0.418400     6
  CG2DC1    CG2O2    OG311     HGP1     9   180.000000     4.077308     1
  CG2DC1    CG2O2    OG311     HGP1     9   180.000000    11.276298     2
  CG2DC1    CG2O2    OG311     HGP1     9   180.000000     0.332628     3
  CG2DC1    CG2O2    OG311     HGP1     9   180.000000     0.775714     6
  CG2DC1    CG2O5    CG2O5   CG2R51     9   180.000000     0.001255     2
  CG2DC1    CG2O5    CG2O5    OG2D3     9   180.000000     0.100834     2
  CG2DC1    CG2O5   CG2R51   CG2R51     9   180.000000     0.154390     2
  CG2DC1    CG2O5   CG2R51   NG2R51     9   180.000000     6.632895     2
  CG2DC1    CG2O5   CG2R61   CG2R61     9     0.000000     0.000000     2
  CG2DC1    CG2O5   CG2R61   CG2R64     9     0.000000     2.803280     2
  CG2DC1    CG2O5    CG311   CG2R61     9     0.000000     0.000000     1
  CG2DC1    CG2O5    CG311   CG2R61     9     0.000000     0.167360     3
  CG2DC1    CG2O5    CG311   CG2R61     9     0.000000     5.397360     4
  CG2DC1    CG2O5    CG311    OG311     9     0.000000     0.000000     2
  CG2DC1    CG2O5    CG311     HGA1     9     0.000000     0.000000     3
  CG2DC1    CG2O5    CG321    CG321     9     0.000000     0.753120     1
  CG2DC1    CG2O5    CG321    CG321     9   180.000000     8.702720     2
  CG2DC1    CG2O5    CG321    CG321     9   180.000000     4.225840     3
  CG2DC1    CG2O5    CG321    CG321     9     0.000000     7.991440     4
  CG2DC1    CG2O5    CG321    CG321     9   180.000000     3.974800     6
  CG2DC1    CG2O5    CG321     HGA2     9     0.000000     0.418400     3
  CG2DC1    CG2O5    CG331     HGA3     9     0.000000     0.418400     3
  CG2DC1    CG2O5    SG3O3    CG331     9   180.000000     0.460240     2
  CG2DC1    CG2O5    SG3O3    CG331     9   180.000000     1.464400     3
  CG2DC1    CG2O5    SG3O3    NG2D1     9     0.000000     0.502080     2
  CG2DC1    CG2O5    SG3O3    NG2D1     9     0.000000     4.895280     3
  CG2DC1    CG2O5    SG3O3    OG2P1     9     0.000000     1.799120     2
  CG2DC1    CG2O5    SG3O3    OG2P1     9   180.000000     0.083680     3
  CG2DC1   CG2R51   CG2R51    CG2O5     9   180.000000     0.000000     2
  CG2DC1   CG2R51   CG2R51   CG2R51     9   180.000000     0.000000     2
  CG2DC1   CG2R51   CG2R51   CG2R52     9   180.000000     0.000000     2
  CG2DC1   CG2R51   CG2R51   CG2RC0     9   180.000000     0.000000     2
  CG2DC1   CG2R51   CG2R51    CG321     9   180.000000     0.000000     2
  CG2DC1   CG2R51   CG2R51    CG331     9   180.000000     0.000000     2
  CG2DC1   CG2R51   CG2R51   NG2R51     9   180.000000     0.013807     2
  CG2DC1   CG2R51   CG2R51   OG2R50     9   180.000000    14.644000     2
  CG2DC1   CG2R51   CG2R51    OG311     9   180.000000     8.315700     2
  CG2DC1   CG2R51   CG2R51   OG3C51     9     0.000000     1.506240     2
  CG2DC1   CG2R51   CG2R51    HGR51     9   180.000000     1.548080     2
  CG2DC1   CG2R51   CG2R51    HGR52     9   180.000000     1.564398     2
  CG2DC1   CG2R51   CG2R52   NG2R50     9     0.000000     1.380720     2
  CG2DC1   CG2R51   CG2R52    HGR52     9   180.000000     1.548080     2
  CG2DC1   CG2R51   CG2RC0   CG2R61     9   180.000000     0.023849     2
  CG2DC1   CG2R51   CG2RC0   CG2RC0     9   180.000000     5.122890     2
  CG2DC1   CG2R51   NG2R50   CG2R53     9   180.000000     3.792796     2
  CG2DC1   CG2R51   NG2R51   CG2RC0     9     0.000000     2.050160     2
  CG2DC1   CG2R51   NG2R51    CG331     9     0.000000     1.046000     2
  CG2DC1   CG2R51   NG2R51   NG2R50     9   180.000000     8.200640     2
  CG2DC1   CG2R51   NG2R51     HGP1     9     0.000000     3.514560     2
  CG2DC1   CG2R51   OG3C51   CG3C52     9   180.000000    25.815280     2
  CG2DC1   CG2R52   CG2R52   CG2DC2     9     0.000000     8.284320     2
  CG2DC1   CG2R52   CG2R52   NG2R50     9     0.000000     2.970640     2
  CG2DC1   CG2R52   NG2R50   CG2R53     9   180.000000     3.807440     2
  CG2DC1   CG2R52   NG2R50   NG2R51     9     0.000000     0.000000     2
  CG2DC1   CG2R53   NG2R50   CG251O     9   180.000000     0.307106     2
  CG2DC1   CG2R53   NG2R50   CG2RC0     9   180.000000     0.292880     2
  CG2DC1   CG2R53   NG2R51   CG2R53     9   180.000000     1.124659     2
  CG2DC1   CG2R53   NG2R51    CG321     9   180.000000     0.263174     2
  CG2DC1   CG2R53   NG2R51    CG331     9   180.000000     0.263174     2
  CG2DC1   CG2R53   NG2R52   CG2RC0     9   180.000000     8.326160     2
  CG2DC1   CG2R53   NG2R52    CG334     9     0.000000     0.543920     2
  CG2DC1   CG2R53   SG2R50   CG2RC0     9   180.000000    26.735760     2
  CG2DC1   CG2R61   CG2R61   CG2DC1     9   180.000000     7.447520     2
  CG2DC1   CG2R61   CG2R61    CG2O5     9     0.000000     1.464400     2
  CG2DC1   CG2R61   CG2R61   CG2R61     9   180.000000    12.970400     2
  CG2DC1   CG2R61   CG2R61    CG311     9   180.000000    11.338640     2
  CG2DC1   CG2R61   CG2R61    CG321     9   180.000000    11.319394     2
  CG2DC1   CG2R61   CG2R61    CG331     9   180.000000    11.319394     2
  CG2DC1   CG2R61   CG2R61   NG2R61     9   180.000000     6.861760     2
  CG2DC1   CG2R61   CG2R61    NG311     9   180.000000     2.133840     2
  CG2DC1   CG2R61   CG2R61    OG311     9   180.000000    10.310213     2
  CG2DC1   CG2R61   CG2R61   OG3R60     9   180.000000    12.886720     2
  CG2DC1   CG2R61   CG2R61    HGR61     9   180.000000    10.041600     2
  CG2DC1   CG2R61   CG2R66   CG2R61     9   180.000000    12.970400     2
  CG2DC1   CG2R61   CG2R66   CG2RC0     9   180.000000    12.970400     2
  CG2DC1   CG2R61   CG2R66     FGR1     9   180.000000     8.451680     2
  CG2DC1   CG2R61   CG2RC0   CG2R51     9   180.000000     7.154640     2
  CG2DC1   CG2R61   CG2RC0   CG2RC0     9   180.000000     4.769760     2
  CG2DC1   CG2R61   NG2R60   CG2R61     9   180.000000    26.108160     2
  CG2DC1   CG2R61   NG2R61   CG2R61     9   180.000000     5.104480     2
  CG2DC1   CG2R61   NG2R61     HGP1     9   180.000000     3.054320     2
  CG2DC1   CG2R61   NG2RC0   CG2R51     9   180.000000    10.501840     2
  CG2DC1   CG2R61   NG2RC0   CG2RC0     9   180.000000     8.033280     2
  CG2DC1   CG2R62   CG2R62   CG2R62     9   180.000000    16.903360     2
  CG2DC1   CG2R62   CG2R62    CG331     9   180.000000     6.276000     2
  CG2DC1   CG2R62   CG2R62   NG2R62     9   180.000000    18.158560     2
  CG2DC1   CG2R62   CG2R62    OG311     9   180.000000    19.371920     2
  CG2DC1   CG2R62   CG2R63   NG2R61     9   180.000000     5.564720     2
  CG2DC1   CG2R62   CG2R63    OG2D4     9     0.000000     0.585760     2
  CG2DC1   CG2R62   NG2R61   CG2R62     9   180.000000    17.572800     2
  CG2DC1   CG2R62   NG2R61     HGP2     9   180.000000    14.225600     2
  CG2DC1   CG2R64   NG2R62   CG2R61     9   180.000000    33.723040     2
  CG2DC1   CG2R64   NG2R62   NG2R62     9   180.000000    17.656480     2
  CG2DC1   CG2RC0   CG2RC0   CG2DC1     9   180.000000    12.552000     2
  CG2DC1   CG2RC0   CG2RC0   CG2RC0     9   180.000000     6.276000     2
  CG2DC1   CG2RC0   CG2RC0    NG2D1     9   180.000000     0.000000     2
  CG2DC1   CG2RC0   CG2RC0     HGA4     9   180.000000    25.104000     2
  CG2DC1   CG2RC0    NG2D1   CG2RC0     9   180.000000     5.020800     2
  CG2DC1    CG301    CG301   CG2DC2     9     0.000000     1.673600     1
  CG2DC1    CG301    CG301   CG2DC2     9     0.000000     3.514560     3
  CG2DC1    CG301    CG301   CG2DC2     9   180.000000    10.376320     4
  CG2DC1    CG301    CG301    CG321     9     0.000000     0.836800     3
  CG2DC1    CG301    CG301   OG3C61     9     0.000000     0.502080     3
  CG2DC1    CG301    CG311    CG2D1     9     0.000000    14.351120     1
  CG2DC1    CG301    CG311    CG2D1     9   180.000000     6.527040     3
  CG2DC1    CG301    CG311    CG2D1     9     0.000000     7.070960     4
  CG2DC1    CG301    CG311    CG321     9     0.000000     0.836800     3
  CG2DC1    CG301    CG311     HGA1     9     0.000000     0.836800     3
  CG2DC1    CG301    CG321    CG321     9     0.000000     0.836800     3
  CG2DC1    CG301    CG321     HGA2     9     0.000000     0.794960     3
  CG2DC1    CG301    CG331     HGA3     9     0.000000     0.669440     3
  CG2DC1    CG301    NG311   CG2R61     9     0.000000     5.773920     1
  CG2DC1    CG301    NG311   CG2R61     9     0.000000    10.920240     2
  CG2DC1    CG301    NG311   CG2R61     9   180.000000     2.803280     3
  CG2DC1    CG301    NG311   HGPAM1     9     0.000000     0.000000     2
  CG2DC1    CG301    NG311   HGPAM1     9   180.000000     0.334720     3
  CG2DC1    CG301    OG311     HGP1     9     0.000000     5.773920     1
  CG2DC1    CG301    OG311     HGP1     9   180.000000     0.669440     2
  CG2DC1    CG301    OG311     HGP1     9     0.000000     0.669440     3
  CG2DC1    CG301   OG3C61    CG321     9     0.000000     2.970640     3
  CG2DC1    CG311    CG311    CG311     9     0.000000     0.836800     3
  CG2DC1    CG311    CG311    CG321     9   180.000000     0.585760     1
  CG2DC1    CG311    CG311    CG321     9     0.000000     0.711280     2
  CG2DC1    CG311    CG311    CG321     9   180.000000     0.209200     3
  CG2DC1    CG311    CG311    NG2D1     9   180.000000     0.920480     2
  CG2DC1    CG311    CG311    NG2D1     9   180.000000     3.054320     3
  CG2DC1    CG311    CG311     HGA1     9     0.000000     0.836800     3
  CG2DC1    CG311    CG321    CG2D1     9   180.000000     3.765600     1
  CG2DC1    CG311    CG321    CG2D1     9   180.000000     1.255200     3
  CG2DC1    CG311    CG321   CG2R61     9     0.000000     0.000000     1
  CG2DC1    CG311    CG321   CG2R61     9     0.000000     9.497680     3
  CG2DC1    CG311    CG321    CG321     9   180.000000     0.585760     1
  CG2DC1    CG311    CG321    CG321     9     0.000000     0.711280     2
  CG2DC1    CG311    CG321    CG321     9   180.000000     0.209200     3
  CG2DC1    CG311    CG321    NG301     9     0.000000     2.886960     3
  CG2DC1    CG311    CG321    NG301     9   180.000000     0.543920     4
  CG2DC1    CG311    CG321     HGA2     9     0.000000     0.836800     3
  CG2DC1    CG311    CG331     HGA3     9     0.000000     0.669440     3
  CG2DC1    CG311   CG3RC1   CG3C51     9     0.000000     5.941280     4
  CG2DC1    CG311   CG3RC1    NG2S0     9     0.000000     9.497680     3
  CG2DC1    CG311   CG3RC1    NG2S0     9   180.000000     5.313680     4
  CG2DC1    CG311   CG3RC1     HGA1     9     0.000000     0.000000     3
  CG2DC1    CG311    NG2S0   CG2D2O     9     0.000000     8.828240     1
  CG2DC1    CG311    NG2S0   CG2D2O     9     0.000000     0.669440     2
  CG2DC1    CG311    NG2S0    CG2O1     9   180.000000    33.304640     1
  CG2DC1    CG311    NG2S0    CG2O1     9     0.000000     1.380720     2
  CG2DC1    CG311    NG2S1    CG2O1     9     0.000000    12.091760     1
  CG2DC1    CG311    NG2S1    CG2O1     9     0.000000     9.665040     2
  CG2DC1    CG311    NG2S1    CG2O1     9   180.000000    15.146080     3
  CG2DC1    CG311    NG2S1    CG2O1     9     0.000000     0.083680     4
  CG2DC1    CG311    NG2S1    CG2O1     9   180.000000     1.422560     6
  CG2DC1    CG311    NG2S1     HGP1     9   180.000000     2.343040     1
  CG2DC1    CG311    NG2S1     HGP1     9     0.000000     4.769760     3
  CG2DC1    CG311    NG301    CG321     9   180.000000     4.602400     1
  CG2DC1    CG311    NG301    CG321     9   180.000000     2.510400     2
  CG2DC1    CG311    NG301    CG321     9     0.000000     2.092000     3
  CG2DC1    CG311    NG311   CG2D1O     9   180.000000    28.744080     1
  CG2DC1    CG311    NG311   CG2D1O     9   180.000000    13.137760     2
  CG2DC1    CG311    NG311   CG2D1O     9     0.000000     2.301200     3
  CG2DC1    CG311    NG311   HGPAM1     9     0.000000     2.008320     3
  CG2DC1    CG311    OG311     HGP1     9     0.000000     5.439200     1
  CG2DC1    CG311    OG311     HGP1     9     0.000000     2.928800     2
  CG2DC1    CG311    OG311     HGP1     9     0.000000     0.585760     3
  CG2DC1    CG311   OG3R60   CG2D2O     9     0.000000     2.928800     3
  CG2DC1    CG314    NG2P1    CG2N1     9   180.000000     3.514560     4
  CG2DC1    CG314    NG2P1    CG2N1     9     0.000000     0.543920     6
  CG2DC1    CG314    NG2P1     HGP2     9   180.000000     2.008320     3
  CG2DC1    CG314    NG2P1     HGP2     9     0.000000     3.556400     6
  CG2DC1    CG321    CG321    CG2O1     9     0.000000     0.836800     3
  CG2DC1    CG321    CG321    CG314     9     0.000000     3.012480     3
  CG2DC1    CG321    CG321    CG314     9   180.000000     1.255200     4
  CG2DC1    CG321    CG321    CG321     9     0.000000     0.794960     3
  CG2DC1    CG321    CG321    CG331     9   180.000000     0.585760     1
  CG2DC1    CG321    CG321    CG331     9     0.000000     0.711280     2
  CG2DC1    CG321    CG321    CG331     9   180.000000     0.209200     3
  CG2DC1    CG321    CG321   CG3RC1     9     0.000000     0.836800     3
  CG2DC1    CG321    CG321    NG311     9   180.000000     4.686080     3
  CG2DC1    CG321    CG321    NG311     9     0.000000     2.133840     4
  CG2DC1    CG321    CG321   OG3C61     9   180.000000     1.004160     3
  CG2DC1    CG321    CG321    SG311     9     0.000000     1.287835     1
  CG2DC1    CG321    CG321    SG311     9     0.000000     1.480299     2
  CG2DC1    CG321    CG321    SG311     9   180.000000     1.399130     3
  CG2DC1    CG321    CG321     HGA2     9     0.000000     0.794960     3
  CG2DC1    CG321    CG324    NG3P2     9     0.000000     6.987280     3
  CG2DC1    CG321    CG324    NG3P2     9     0.000000     0.209200     4
  CG2DC1    CG321    CG324     HGA2     9     0.000000     0.794960     3
  CG2DC1    CG321    CG331     HGA3     9     0.000000     0.669440     3
  CG2DC1    CG321    NG301   CG2D2O     9     0.000000     3.389040     1
  CG2DC1    CG321    NG301   CG2D2O     9     0.000000    19.455600     2
  CG2DC1    CG321    NG301   CG2D2O     9   180.000000     4.351360     3
  CG2DC1    CG321    NG301    CG321     9   180.000000     4.602400     1
  CG2DC1    CG321    NG301    CG321     9   180.000000     2.510400     2
  CG2DC1    CG321    NG301    CG321     9     0.000000     2.092000     3
  CG2DC1    CG321    NG301    CG331     9   180.000000     4.602400     1
  CG2DC1    CG321    NG301    CG331     9   180.000000     2.510400     2
  CG2DC1    CG321    NG301    CG331     9     0.000000     2.092000     3
  CG2DC1    CG321    NG311    CG321     9   180.000000     4.602400     1
  CG2DC1    CG321    NG311    CG321     9   180.000000     2.510400     2
  CG2DC1    CG321    NG311    CG321     9     0.000000     2.092000     3
  CG2DC1    CG321    NG311   HGPAM1     9     0.000000     2.008320     3
  CG2DC1    CG321    OG311     HGP1     9     0.000000     5.439200     1
  CG2DC1    CG321    OG311     HGP1     9     0.000000     2.928800     2
  CG2DC1    CG321    OG311     HGP1     9     0.000000     0.585760     3
  CG2DC1    CG321   OG3C61    CG321     9     0.000000     1.380720     1
  CG2DC1    CG321   OG3C61    CG321     9     0.000000     0.836800     2
  CG2DC1    CG321   OG3C61    CG321     9     0.000000     2.886960     3
  CG2DC1    CG321   OG3C61    CG321     9     0.000000     0.083680     4
  CG2DC1    CG321   OG3R60   CG2D2O     9     0.000000     2.928800     3
  CG2DC1    CG321   OG3R60   CG2R61     9     0.000000     6.024960     2
  CG2DC1    CG321   OG3R60   CG2R61     9     0.000000     2.635920     3
  CG2DC1    CG321    SG311    CG321     9   180.000000     0.167360     1
  CG2DC1    CG321    SG311    CG321     9     0.000000     3.305360     3
  CG2DC1    CG321    SG311    CG321     9   180.000000     2.426720     4
  CG2DC1    CG321    SG311   CG3RC1     9   180.000000     5.481040     1
  CG2DC1    CG321    SG311   CG3RC1     9   180.000000     9.957920     3
  CG2DC1    CG321    SG311   CG3RC1     9     0.000000     4.853440     4
  CG2DC1    CG321      CT1        C     9   180.000000     5.355520     1
  CG2DC1    CG321      CT1        C     9   180.000000     3.932960     2
  CG2DC1    CG321      CT1        C     9   180.000000     6.568880     3
  CG2DC1    CG321     CTD1        C     9   180.000000     5.355520     1
  CG2DC1    CG321     CTD1        C     9   180.000000     3.932960     2
  CG2DC1    CG321     CTD1        C     9   180.000000     6.568880     3
  CG2DC1    CG324   NG2R52   CG2R53     9     0.000000     0.125520     2
  CG2DC1    CG324   NG2R52   CG2R53     9     0.000000     6.903600     3
  CG2DC1    CG324   NG2R52   CG3C54     9     0.000000     1.422560     2
  CG2DC1    CG324   NG2R52   CG3C54     9   180.000000     0.251040     3
  CG2DC1    CG324    NG3P2    CG324     9   180.000000     2.928800     1
  CG2DC1    CG324    NG3P2    CG324     9     0.000000     3.347200     3
  CG2DC1    CG324    NG3P2     HGP2     9     0.000000     0.209200     3
  CG2DC1   CG3RC1   CG3RC1   CG2DC2     9     0.000000     0.000000     2
  CG2DC1   CG3RC1   CG3RC1   CG2DC2     9     0.000000     0.000000     3
  CG2DC1   CG3RC1   CG3RC1   OG3C51     9   180.000000     2.635920     2
  CG2DC1   CG3RC1   CG3RC1   OG3C51     9     0.000000     0.000000     3
  CG2DC1   CG3RC1   CG3RC1     HGA1     9     0.000000     0.000000     3
  CG2DC1   CG3RC1   OG3C51   CG3C50     9   180.000000     3.723760     2
  CG2DC1   CG3RC1   OG3C51   CG3C50     9     0.000000     9.916080     3
  CG2DC1   CG3RC1   OG3C51   CG3C52     9   180.000000     0.000000     2
  CG2DC1   CG3RC1   OG3C51   CG3C52     9     0.000000     0.000000     3
  CG2DC1    NG2D1    NG2D1   CG2R51     9   180.000000     1.046000     2
  CG2DC1    NG2D1    NG2D1   CG2R51     9     0.000000     6.485200     3
  CG2DC1    NG2D1    NG2D1   CG2R51     9     0.000000     0.502080     4
  CG2DC1    NG2D1    NG2P1    CG2N1     9     0.000000     0.543920     2
  CG2DC1    NG2D1    NG2P1    CG2N1     9     0.000000     4.518720     4
  CG2DC1    NG2D1    NG2P1     HGP2     9     0.000000     1.004160     2
  CG2DC1    NG2D1    NG2P1     HGP2     9     0.000000     0.125520     4
  CG2DC1    NG2D1    NG2S1    CG2O1     9   180.000000    14.225600     1
  CG2DC1    NG2D1    NG2S1    CG2O1     9   180.000000     5.439200     2
  CG2DC1    NG2D1    NG2S1     HGP1     9   180.000000    10.460000     2
  CG2DC3   CG251O   CG2R53   NG2R51     9   180.000000     0.418400     2
  CG2DC3   CG251O   CG2R53   NG2R53     9   180.000000     0.836800     2
  CG2DC3   CG251O   CG2R53    OG2D1     9   180.000000     3.347200     2
  CG2DC3   CG251O   CG2R53   OG3C51     9     0.000000     0.000000     2
  CG2DC3   CG251O   CG2RC0   CG2R61     9   180.000000     0.418400     2
  CG2DC3   CG251O   CG2RC0   CG2RC0     9   180.000000     0.418400     2
  CG2DC3   CG251O   NG2R50   CG2R53     9   180.000000     6.310727     2
  CG2DC3   CG251O   NG2R53   CG2R53     9   180.000000     4.184000     2
  CG2DC3   CG251O   NG2R53     HGP1     9   180.000000     1.673600     2
  CG2DC3   CG251O   OG3C51   CG3C50     9   180.000000     0.836800     2
  CG2DC3   CG251O    SG311   CG2R53     9     0.000000     0.836800     3
  CG2DC3   CG252O   CG2R53   NG2R51     9   180.000000     0.418400     2
  CG2DC3   CG252O   CG2R53   NG2R53     9   180.000000     0.836800     2
  CG2DC3   CG252O   CG2R53    OG2D1     9   180.000000     3.347200     2
  CG2DC3   CG252O   CG2R53   OG3C51     9     0.000000     0.000000     2
  CG2DC3   CG252O   CG2RC0   CG2R61     9   180.000000     0.418400     2
  CG2DC3   CG252O   CG2RC0   CG2RC0     9   180.000000     0.418400     2
  CG2DC3   CG252O   NG2R50   CG2R53     9   180.000000     6.310727     2
  CG2DC3   CG252O   NG2R53   CG2R53     9   180.000000     4.184000     2
  CG2DC3   CG252O   NG2R53     HGP1     9   180.000000     1.673600     2
  CG2DC3   CG252O   OG3C51   CG3C50     9   180.000000     0.836800     2
  CG2DC3   CG252O    SG311   CG2R53     9     0.000000     0.836800     3
  CG2DC3   CG25C1   CG2R53   NG2R51     9   180.000000     0.418400     2
  CG2DC3   CG25C1   CG2R53    OG2D1     9   180.000000     4.184000     2
  CG2DC3   CG25C1   CG2RC0   CG2R61     9   180.000000     0.418400     2
  CG2DC3   CG25C1   CG2RC0   CG2RC0     9   180.000000     0.418400     2
  CG2DC3   CG25C2   CG2R53   NG2R51     9   180.000000     0.418400     2
  CG2DC3   CG25C2   CG2R53    OG2D1     9   180.000000     4.184000     2
  CG2DC3   CG25C2   CG2RC0   CG2R61     9   180.000000     0.418400     2
  CG2DC3   CG25C2   CG2RC0   CG2RC0     9   180.000000     0.418400     2
  CG2DC3   CG2DC1   CG2DC2   CG2D2O     9   180.000000     6.276000     1
  CG2DC3   CG2DC1   CG2DC2   CG2D2O     9   180.000000     4.184000     2
  CG2DC3   CG2DC1   CG2DC2   CG2D2O     9     0.000000     6.276000     3
  CG2DC3   CG2DC1   CG2DC2   CG2DC2     9   180.000000     2.092000     1
  CG2DC3   CG2DC1   CG2DC2   CG2DC2     9     0.000000     8.368000     2
  CG2DC3   CG2DC1   CG2DC2   CG2DC2     9     0.000000     4.184000     3
  CG2DC3   CG2DC1   CG2DC2   CG2DC3     9   180.000000     1.673600     1
  CG2DC3   CG2DC1   CG2DC2   CG2DC3     9   180.000000     1.673600     2
  CG2DC3   CG2DC1   CG2DC2   CG2DC3     9     0.000000     5.439200     3
  CG2DC3   CG2DC1   CG2DC2    CG2O1     9   180.000000     3.221680     1
  CG2DC3   CG2DC1   CG2DC2    CG2O1     9     0.000000    14.225600     2
  CG2DC3   CG2DC1   CG2DC2    CG2O1     9     0.000000     4.142160     3
  CG2DC3   CG2DC1   CG2DC2    CG301     9     0.000000     3.765600     1
  CG2DC3   CG2DC1   CG2DC2    CG301     9   180.000000     8.786400     2
  CG2DC3   CG2DC1   CG2DC2    CG301     9     0.000000     0.920480     3
  CG2DC3   CG2DC1   CG2DC2    CG301     9   180.000000     1.046000     5
  CG2DC3   CG2DC1   CG2DC2    CG301     9     0.000000     0.418400     6
  CG2DC3   CG2DC1   CG2DC2    CG331     9   180.000000     4.602400     1
  CG2DC3   CG2DC1   CG2DC2    CG331     9   180.000000     2.928800     2
  CG2DC3   CG2DC1   CG2DC2    NG2P1     9     0.000000     2.092000     1
  CG2DC3   CG2DC1   CG2DC2    NG2P1     9   180.000000     9.204800     2
  CG2DC3   CG2DC1   CG2DC2    NG2P1     9     0.000000     4.602400     3
  CG2DC3   CG2DC1   CG2DC2    NG2P1     9     0.000000     2.510400     4
  CG2DC3   CG2DC1   CG2DC2     HGA4     9   180.000000     4.184000     2
  CG2DC3   CG2DC1   CG2DC2    HGR52     9   180.000000     4.184000     2
  CG2DC3   CG2DC1    CG2O3    OG2D2     9   180.000000     5.439200     2
  CG2DC3   CG2DC1    CG2O4    OG2D1     9   180.000000     4.184000     2
  CG2DC3   CG2DC1    CG2O4    HGR52     9   180.000000    13.388800     2
  CG2DC3   CG2DC1    CG2O5    CG331     9   180.000000     5.857600     2
  CG2DC3   CG2DC1    CG2O5    OG2D3     9   180.000000     5.857600     2
  CG2DC3   CG2DC1   CG2R51   CG2R51     9   180.000000     0.210455     1
  CG2DC3   CG2DC1   CG2R51   CG2R51     9   180.000000     3.229211     2
  CG2DC3   CG2DC1   CG2R51   CG2R51     9     0.000000     1.817948     4
  CG2DC3   CG2DC1   CG2R51   CG2RC0     9   180.000000     1.681550     2
  CG2DC3   CG2DC1   CG2R51   NG2R50     9   180.000000     8.330762     1
  CG2DC3   CG2DC1   CG2R51   NG2R50     9   180.000000     5.547566     2
  CG2DC3   CG2DC1   CG2R51   NG2R50     9     0.000000     0.437646     4
  CG2DC3   CG2DC1   CG2R61   CG2R61     9   180.000000     3.138000     2
  CG2DC3   CG2DC1   CG2R61   CG2R61     9     0.000000     0.794960     4
  CG2DC3   CG2DC1   CG2R61   CG2RC0     9   180.000000     3.138000     2
  CG2DC3   CG2DC1   CG2R61   CG2RC0     9     0.000000     0.794960     4
  CG2DC3   CG2DC1   CG2R61   NG2R60     9   180.000000     5.899440     2
  CG2DC3   CG2DC1    CG321    CG2O1     9   180.000000     1.046000     3
  CG2DC3   CG2DC1    CG321    CG321     9     0.000000     2.092000     2
  CG2DC3   CG2DC1    CG321    CG321     9     0.000000     1.255200     3
  CG2DC3   CG2DC1    CG321     HGA2     9     0.000000     0.125520     3
  CG2DC3   CG2DC1    CG331     HGA3     9     0.000000     1.255200     3
  CG2DC3   CG2DC2    CG2O3    OG2D2     9   180.000000     5.439200     2
  CG2DC3   CG2DC2    CG2O4    OG2D1     9   180.000000     4.184000     2
  CG2DC3   CG2DC2    CG2O4    HGR52     9   180.000000    13.388800     2
  CG2DC3   CG2DC2    CG2O5    CG331     9   180.000000     5.857600     2
  CG2DC3   CG2DC2    CG2O5    OG2D3     9   180.000000     5.857600     2
  CG2DC3   CG2DC2   CG2R51   CG2R51     9   180.000000     0.210455     1
  CG2DC3   CG2DC2   CG2R51   CG2R51     9   180.000000     3.229211     2
  CG2DC3   CG2DC2   CG2R51   CG2R51     9     0.000000     1.817948     4
  CG2DC3   CG2DC2   CG2R51   CG2RC0     9   180.000000     1.681550     2
  CG2DC3   CG2DC2   CG2R51   NG2R50     9   180.000000     8.330762     1
  CG2DC3   CG2DC2   CG2R51   NG2R50     9   180.000000     5.547566     2
  CG2DC3   CG2DC2   CG2R51   NG2R50     9     0.000000     0.437646     4
  CG2DC3   CG2DC2   CG2R61   CG2R61     9   180.000000     3.138000     2
  CG2DC3   CG2DC2   CG2R61   CG2R61     9     0.000000     0.794960     4
  CG2DC3   CG2DC2   CG2R61   CG2RC0     9   180.000000     3.138000     2
  CG2DC3   CG2DC2   CG2R61   CG2RC0     9     0.000000     0.794960     4
  CG2DC3   CG2DC2   CG2R61   NG2R60     9   180.000000     5.899440     2
  CG2DC3   CG2DC2    CG321    CG2O1     9   180.000000     1.046000     3
  CG2DC3   CG2DC2    CG321    CG321     9     0.000000     2.092000     2
  CG2DC3   CG2DC2    CG321    CG321     9     0.000000     1.255200     3
  CG2DC3   CG2DC2    CG321     HGA2     9     0.000000     0.125520     3
  CG2DC3   CG2DC2    CG331     HGA3     9     0.000000     1.255200     3
  CG2R61   CG251O   CG2R53   NG2R53     9   180.000000     9.665040     2
  CG2R61   CG251O   CG2R53    OG2D1     9     0.000000     0.000000     2
  CG2R61   CG251O    SG311   CG2R53     9   180.000000     7.070960     2
  CG2R61   CG251O    SG311   CG2R53     9   180.000000     1.380720     3
  CG2R61   CG252O   CG2R53   NG2R53     9   180.000000     9.665040     2
  CG2R61   CG252O   CG2R53    OG2D1     9     0.000000     0.000000     2
  CG2R61   CG252O    SG311   CG2R53     9   180.000000     7.070960     2
  CG2R61   CG252O    SG311   CG2R53     9   180.000000     1.380720     3
  CG2R61   CG2D1O   CG2DC1    CG2N2     9   180.000000     0.334720     1
  CG2R61   CG2D1O   CG2DC1    CG2N2     9   180.000000    12.008080     2
  CG2R61   CG2D1O   CG2DC1    CG2O1     9     0.000000     5.522880     1
  CG2R61   CG2D1O   CG2DC1    CG2O1     9   180.000000    17.405440     2
  CG2R61   CG2D1O   CG2DC1    CG2O5     9   180.000000     0.000000     1
  CG2R61   CG2D1O   CG2DC1    CG2O5     9   180.000000    22.217040     2
  CG2R61   CG2D1O   CG2DC1    CG311     9     0.000000     0.334720     1
  CG2R61   CG2D1O   CG2DC1    CG311     9     0.000000     0.000000     2
  CG2R61   CG2D1O   CG2DC1    CG321     9   180.000000     2.594080     1
  CG2R61   CG2D1O   CG2DC1    CG321     9   180.000000    24.685600     2
  CG2R61   CG2D1O   CG2DC1     HGA4     9   180.000000     5.104480     2
  CG2R61   CG2D1O   CG2DC2   CG2D2O     9     0.000000     3.096160     1
  CG2R61   CG2D1O   CG2DC2   CG2D2O     9     0.000000     0.460240     2
  CG2R61   CG2D1O   CG2DC2   CG2D2O     9     0.000000     0.418400     3
  CG2R61   CG2D1O   CG2DC2     HGA4     9   180.000000    13.012240     2
  CG2R61   CG2D1O    CG2O5   CG2DC1     9     0.000000     0.836800     2
  CG2R61   CG2D1O    CG2O5    OG2D3     9   180.000000     6.778080     2
  CG2R61   CG2D1O    NG2D1   CG2R61     9     0.000000     0.209200     2
  CG2R61   CG2D1O    NG311    CG321     9   180.000000    17.656480     2
  CG2R61   CG2D1O    NG311   HGPAM1     9   180.000000     6.945440     2
  CG2R61   CG2D1O    OG301    CG331     9   180.000000     1.422560     1
  CG2R61   CG2D1O    OG301    CG331     9     0.000000     0.251040     2
  CG2R61   CG2D1O    OG301    CG331     9     0.000000     1.966480     3
  CG2R61   CG2D1O    OG311     HGP1     9   180.000000     5.522880     1
  CG2R61   CG2D1O    OG311     HGP1     9   180.000000     5.941280     2
  CG2R61   CG2D1O    OG311     HGP1     9   180.000000     2.970640     3
  CG2R61   CG2D1O    OG311     HGP1     9   180.000000     1.464400     6
  CG2R61   CG2D2O   CG2DC1   CG2D1O     9     0.000000     3.096160     1
  CG2R61   CG2D2O   CG2DC1   CG2D1O     9     0.000000     0.460240     2
  CG2R61   CG2D2O   CG2DC1   CG2D1O     9     0.000000     0.418400     3
  CG2R61   CG2D2O   CG2DC1     HGA4     9   180.000000    13.012240     2
  CG2R61   CG2D2O   CG2DC2    CG2N2     9   180.000000     0.334720     1
  CG2R61   CG2D2O   CG2DC2    CG2N2     9   180.000000    12.008080     2
  CG2R61   CG2D2O   CG2DC2    CG2O1     9     0.000000     5.522880     1
  CG2R61   CG2D2O   CG2DC2    CG2O1     9   180.000000    17.405440     2
  CG2R61   CG2D2O   CG2DC2    CG2O5     9   180.000000     0.000000     1
  CG2R61   CG2D2O   CG2DC2    CG2O5     9   180.000000    22.217040     2
  CG2R61   CG2D2O   CG2DC2    CG311     9     0.000000     0.334720     1
  CG2R61   CG2D2O   CG2DC2    CG311     9     0.000000     0.000000     2
  CG2R61   CG2D2O   CG2DC2    CG321     9   180.000000     2.594080     1
  CG2R61   CG2D2O   CG2DC2    CG321     9   180.000000    24.685600     2
  CG2R61   CG2D2O   CG2DC2     HGA4     9   180.000000     5.104480     2
  CG2R61   CG2D2O    CG2O5   CG2DC2     9     0.000000     0.836800     2
  CG2R61   CG2D2O    CG2O5    OG2D3     9   180.000000     6.778080     2
  CG2R61   CG2D2O    NG2D1   CG2R61     9     0.000000     0.209200     2
  CG2R61   CG2D2O    NG311    CG321     9   180.000000    17.656480     2
  CG2R61   CG2D2O    NG311   HGPAM1     9   180.000000     6.945440     2
  CG2R61   CG2D2O    OG301    CG331     9   180.000000     1.422560     1
  CG2R61   CG2D2O    OG301    CG331     9     0.000000     0.251040     2
  CG2R61   CG2D2O    OG301    CG331     9     0.000000     1.966480     3
  CG2R61   CG2D2O    OG311     HGP1     9   180.000000     5.522880     1
  CG2R61   CG2D2O    OG311     HGP1     9   180.000000     5.941280     2
  CG2R61   CG2D2O    OG311     HGP1     9   180.000000     2.970640     3
  CG2R61   CG2D2O    OG311     HGP1     9   180.000000     1.464400     6
  CG2R61   CG2DC1   CG2DC1    CG301     9   180.000000     2.343040     1
  CG2R61   CG2DC1   CG2DC1    CG301     9   180.000000    29.162480     2
  CG2R61   CG2DC1   CG2DC1    CG321     9   180.000000     2.345132     1
  CG2R61   CG2DC1   CG2DC1    CG321     9   180.000000    29.159133     2
  CG2R61   CG2DC1   CG2DC1    CG331     9   180.000000     2.345132     1
  CG2R61   CG2DC1   CG2DC1    CG331     9   180.000000    29.159133     2
  CG2R61   CG2DC1   CG2DC1     HGA4     9   180.000000    21.751779     2
  CG2R61   CG2DC1   CG2DC3     HGA5     9   180.000000    14.644000     2
  CG2R61   CG2DC1    CG2O5   CG2DC1     9     0.000000     0.000000     2
  CG2R61   CG2DC1    CG2O5    OG2D3     9   180.000000     8.284320     2
  CG2R61   CG2DC1   CG2R51   CG2R51     9     0.000000     1.673600     1
  CG2R61   CG2DC1   CG2R51   CG2R51     9     0.000000     0.711280     2
  CG2R61   CG2DC1   CG2R51   CG2R51     9     0.000000     2.133840     4
  CG2R61   CG2DC1   CG2R51   OG3C51     9   180.000000     5.899440     1
  CG2R61   CG2DC1   CG2R51   OG3C51     9   180.000000    43.346240     2
  CG2R61   CG2DC1   CG2R51   OG3C51     9     0.000000     1.924640     4
  CG2R61   CG2DC1    CG301    CG321     9     0.000000     4.184000     3
  CG2R61   CG2DC1    CG301    CG321     9   180.000000     0.753120     6
  CG2R61   CG2DC1    CG301    OG311     9   180.000000     0.000000     2
  CG2R61   CG2DC1    CG301    OG311     9     0.000000     2.552240     3
  CG2R61   CG2DC1    CG311    CG321     9   180.000000     6.861760     2
  CG2R61   CG2DC1    CG311    CG321     9   180.000000     5.313680     3
  CG2R61   CG2DC1    CG311    OG311     9   180.000000     0.585760     3
  CG2R61   CG2DC1    CG311     HGA1     9   180.000000     0.000000     3
  CG2R61   CG2DC1    CG321    CG311     9   180.000000     9.497680     3
  CG2R61   CG2DC1    CG321    CG311     9   180.000000    15.187920     4
  CG2R61   CG2DC1    CG321    CG321     9   180.000000    13.305120     2
  CG2R61   CG2DC1    CG321    CG321     9   180.000000     5.773920     3
  CG2R61   CG2DC1    CG321     HGA2     9   180.000000     0.000000     3
  CG2R61   CG2DC1    CG331     HGA3     9   180.000000     2.510400     3
  CG2R61   CG2DC1    NG2D1    CG321     9   180.000000     6.101946     2
  CG2R61   CG2DC1    NG2D1    CG331     9   180.000000    40.861362     2
  CG2R61   CG2DC1    NG2D1    NG2S1     9   180.000000    50.208000     2
  CG2R61   CG2DC2   CG2DC2    CG301     9   180.000000     2.343040     1
  CG2R61   CG2DC2   CG2DC2    CG301     9   180.000000    29.162480     2
  CG2R61   CG2DC2   CG2DC2    CG321     9   180.000000     2.345132     1
  CG2R61   CG2DC2   CG2DC2    CG321     9   180.000000    29.159133     2
  CG2R61   CG2DC2   CG2DC2    CG331     9   180.000000     2.345132     1
  CG2R61   CG2DC2   CG2DC2    CG331     9   180.000000    29.159133     2
  CG2R61   CG2DC2   CG2DC2     HGA4     9   180.000000    21.751779     2
  CG2R61   CG2DC2   CG2DC3     HGA5     9   180.000000    14.644000     2
  CG2R61   CG2DC2    CG2O5   CG2DC2     9     0.000000     0.000000     2
  CG2R61   CG2DC2    CG2O5    OG2D3     9   180.000000     8.284320     2
  CG2R61   CG2DC2   CG2R51   CG2R51     9     0.000000     1.673600     1
  CG2R61   CG2DC2   CG2R51   CG2R51     9     0.000000     0.711280     2
  CG2R61   CG2DC2   CG2R51   CG2R51     9     0.000000     2.133840     4
  CG2R61   CG2DC2   CG2R51   OG3C51     9   180.000000     5.899440     1
  CG2R61   CG2DC2   CG2R51   OG3C51     9   180.000000    43.346240     2
  CG2R61   CG2DC2   CG2R51   OG3C51     9     0.000000     1.924640     4
  CG2R61   CG2DC2    CG301    CG321     9     0.000000     4.184000     3
  CG2R61   CG2DC2    CG301    CG321     9   180.000000     0.753120     6
  CG2R61   CG2DC2    CG301    OG311     9   180.000000     0.000000     2
  CG2R61   CG2DC2    CG301    OG311     9     0.000000     2.552240     3
  CG2R61   CG2DC2    CG311    CG321     9   180.000000     6.861760     2
  CG2R61   CG2DC2    CG311    CG321     9   180.000000     5.313680     3
  CG2R61   CG2DC2    CG311    OG311     9   180.000000     0.585760     3
  CG2R61   CG2DC2    CG311     HGA1     9   180.000000     0.000000     3
  CG2R61   CG2DC2    CG321    CG311     9   180.000000     9.497680     3
  CG2R61   CG2DC2    CG321    CG311     9   180.000000    15.187920     4
  CG2R61   CG2DC2    CG321    CG321     9   180.000000    13.305120     2
  CG2R61   CG2DC2    CG321    CG321     9   180.000000     5.773920     3
  CG2R61   CG2DC2    CG321     HGA2     9   180.000000     0.000000     3
  CG2R61   CG2DC2    CG331     HGA3     9   180.000000     2.510400     3
  CG2R61   CG2DC2    NG2D1    CG321     9   180.000000     6.101946     2
  CG2R61   CG2DC2    NG2D1    CG331     9   180.000000    40.861362     2
  CG2R61   CG2DC2    NG2D1    NG2S1     9   180.000000    50.208000     2
  CG2R61    CG2N2    NG2D1   CG2R62     9   180.000000     8.911920     2
  CG2R61    CG2N2    NG2P1    CG301     9     0.000000     3.891120     1
  CG2R61    CG2N2    NG2P1    CG301     9   180.000000     3.221680     2
  CG2R61    CG2N2    NG2P1    CG301     9     0.000000     1.171520     3
  CG2R61    CG2N2    NG2P1    OG311     9   180.000000    20.627120     2
  CG2R61    CG2N2    NG2P1     HGP2     9   180.000000     8.368000     2
  CG2R61    CG2N2    NG321   HGPAM2     9   180.000000    34.141440     2
  CG2R61    CG2N2    NG321   HGPAM2     9   180.000000     1.715440     6
  CG2R61    CG2O1    NG2D1    CG331     9   180.000000    32.144835     1
  CG2R61    CG2O1    NG2D1    CG331     9   180.000000    16.469898     2
  CG2R61    CG2O1    NG2D1    CG331     9     0.000000    10.952457     3
  CG2R61    CG2O1    NG2S0    CG311     9     0.000000     3.179840     1
  CG2R61    CG2O1    NG2S0    CG311     9   180.000000     1.506240     2
  CG2R61    CG2O1    NG2S0    CG321     9     0.000000     0.669440     2
  CG2R61    CG2O1    NG2S0    CG331     9     0.000000     6.108640     1
  CG2R61    CG2O1    NG2S0    CG331     9     0.000000     0.125520     2
  CG2R61    CG2O1    NG2S0   CG3C50     9     0.000000     3.723760     1
  CG2R61    CG2O1    NG2S0   CG3C50     9     0.000000     0.041840     2
  CG2R61    CG2O1    NG2S1    CG2O6     9     0.000000     7.698560     1
  CG2R61    CG2O1    NG2S1    CG2O6     9   180.000000     4.225840     2
  CG2R61    CG2O1    NG2S1   CG2R61     9   180.000000     0.836800     1
  CG2R61    CG2O1    NG2S1   CG2R61     9     0.000000     0.000000     2
  CG2R61    CG2O1    NG2S1    CG301     9     0.000000     6.694400     1
  CG2R61    CG2O1    NG2S1    CG301     9   180.000000    16.736000     2
  CG2R61    CG2O1    NG2S1    CG311     9     0.000000     6.694400     1
  CG2R61    CG2O1    NG2S1    CG311     9   180.000000    16.736000     2
  CG2R61    CG2O1    NG2S1    CG321     9     0.000000     6.694400     1
  CG2R61    CG2O1    NG2S1    CG321     9   180.000000    16.736000     2
  CG2R61    CG2O1    NG2S1   CG3C50     9     0.000000     0.125520     1
  CG2R61    CG2O1    NG2S1   CG3C50     9   180.000000     8.953760     2
  CG2R61    CG2O1    NG2S1    NG2D1     9     0.000000     6.694400     1
  CG2R61    CG2O1    NG2S1    NG2D1     9   180.000000    16.736000     2
  CG2R61    CG2O1    NG2S1    NG2S1     9     0.000000     3.138000     1
  CG2R61    CG2O1    NG2S1    NG2S1     9   180.000000    12.552000     2
  CG2R61    CG2O1    NG2S1    SG3O3     9     0.000000     0.000000     1
  CG2R61    CG2O1    NG2S1    SG3O3     9     0.000000     0.000000     2
  CG2R61    CG2O1    NG2S1     HGP1     9   180.000000    10.460000     2
  CG2R61    CG2O1    NG2S2     HGP1     9   180.000000     4.184000     2
  CG2R61    CG2O2    OG302    CG321     9   180.000000     5.230000     1
  CG2R61    CG2O2    OG302    CG321     9   180.000000     6.276000     2
  CG2R61    CG2O2    OG302    CG321     9   180.000000     0.209200     6
  CG2R61    CG2O2    OG302    CG331     9   180.000000     5.230000     1
  CG2R61    CG2O2    OG302    CG331     9   180.000000     6.276000     2
  CG2R61    CG2O2    OG302    CG331     9   180.000000     0.209200     6
  CG2R61    CG2O2    OG311     HGP1     9   180.000000     4.079400     1
  CG2R61    CG2O2    OG311     HGP1     9   180.000000    11.296800     2
  CG2R61    CG2O2    OG311     HGP1     9   180.000000     0.209200     3
  CG2R61    CG2O2    OG311     HGP1     9   180.000000     1.046000     6
  CG2R61    CG2O2   OG3R60    CG311     9   180.000000     0.000000     1
  CG2R61    CG2O2   OG3R60    CG311     9   180.000000    12.008080     2
  CG2R61    CG2O2   OG3R60    CG311     9     0.000000     0.209200     6
  CG2R61    CG2O2    SG311    CG321     9   180.000000     2.228817     2
  CG2R61    CG2O2    SG311    CG321     9     0.000000     2.176098     3
  CG2R61    CG2O2    SG311     HGP3     9   180.000000    19.999520     2
  CG2R61    CG2O5   CG2R51   CG2R51     9     0.000000     4.393200     2
  CG2R61    CG2O5   CG2R51   OG3C51     9     0.000000     1.297040     2
  CG2R61    CG2O5   CG2R61   CG2R61     9   180.000000     3.792796     2
  CG2R61    CG2O5    CG311    CG2O1     9     0.000000     8.116960     1
  CG2R61    CG2O5    CG311    CG2O1     9     0.000000     4.644240     2
  CG2R61    CG2O5    CG311    CG2O1     9     0.000000     2.092000     3
  CG2R61    CG2O5    CG311    CG2O1     9     0.000000     1.631760     4
  CG2R61    CG2O5    CG311    CG2O1     9     0.000000     1.213360     6
  CG2R61    CG2O5    CG311    CG331     9     0.000000     1.673600     1
  CG2R61    CG2O5    CG311    CG331     9   180.000000     0.711280     2
  CG2R61    CG2O5    CG311    CG331     9   180.000000     0.543920     3
  CG2R61    CG2O5    CG311    CG331     9   180.000000     0.418400     6
  CG2R61    CG2O5    CG311    NG311     9   180.000000     4.100320     2
  CG2R61    CG2O5    CG311    NG311     9   180.000000     0.502080     6
  CG2R61    CG2O5    CG311    OG311     9   180.000000     0.000000     2
  CG2R61    CG2O5    CG311    OG312     9     0.000000     0.000000     2
  CG2R61    CG2O5    CG311     HGA1     9   180.000000     0.000000     1
  CG2R61    CG2O5    CG321    CG311     9     0.000000     1.673600     1
  CG2R61    CG2O5    CG321    CG311     9   180.000000     0.711280     2
  CG2R61    CG2O5    CG321    CG311     9   180.000000     0.543920     3
  CG2R61    CG2O5    CG321    CG311     9   180.000000     0.418400     6
  CG2R61    CG2O5    CG321    CG321     9     0.000000     1.673600     1
  CG2R61    CG2O5    CG321    CG321     9   180.000000     0.711280     2
  CG2R61    CG2O5    CG321    CG321     9   180.000000     0.543920     3
  CG2R61    CG2O5    CG321    CG321     9   180.000000     0.418400     6
  CG2R61    CG2O5    CG321    CG331     9     0.000000     1.673600     1
  CG2R61    CG2O5    CG321    CG331     9   180.000000     0.711280     2
  CG2R61    CG2O5    CG321    CG331     9   180.000000     0.543920     3
  CG2R61    CG2O5    CG321    CG331     9   180.000000     0.418400     6
  CG2R61    CG2O5    CG321   CG3C50     9   180.000000     0.167360     1
  CG2R61    CG2O5    CG321   CG3C50     9     0.000000     0.209200     2
  CG2R61    CG2O5    CG321   CG3C50     9     0.000000     0.502080     3
  CG2R61    CG2O5    CG321   CG3C50     9     0.000000     2.594080     4
  CG2R61    CG2O5    CG321   CG3C50     9     0.000000     0.251040     6
  CG2R61    CG2O5    CG321     HGA2     9     0.000000     0.418400     3
  CG2R61    CG2O5    CG331     HGA3     9     0.000000     0.418400     3
  CG2R61    CG2O5   CG3RC1   CG3C31     9   180.000000     6.024960     1
  CG2R61    CG2O5   CG3RC1   CG3C31     9   180.000000     3.138000     2
  CG2R61    CG2O5   CG3RC1   CG3C31     9     0.000000     5.397360     3
  CG2R61    CG2O5   CG3RC1   CG3C31     9     0.000000     0.627600     6
  CG2R61    CG2O5   CG3RC1   CG3RC1     9     0.000000     1.840960     1
  CG2R61    CG2O5   CG3RC1   CG3RC1     9     0.000000     0.334720     2
  CG2R61    CG2O5   CG3RC1   CG3RC1     9     0.000000     1.380720     3
  CG2R61    CG2O5   CG3RC1   CG3RC1     9   180.000000     0.376560     6
  CG2R61    CG2O5   CG3RC1     HGA1     9     0.000000     0.000000     3
  CG2R61   CG2R51   CG2R51   CG2RC0     9     0.000000     1.380720     2
  CG2R61   CG2R51   CG2R51    CG321     9   180.000000     2.886960     2
  CG2R61   CG2R51   CG2R51    CG331     9     0.000000     4.895280     2
  CG2R61   CG2R51   CG2R51   CG3C52     9   180.000000     9.162960     2
  CG2R61   CG2R51   CG2R51   CG3C54     9   180.000000    24.099840     2
  CG2R61   CG2R51   CG2R51   NG2R51     9     0.000000     0.292880     2
  CG2R61   CG2R51   CG2R51   NG2RC0     9   180.000000     2.133840     2
  CG2R61   CG2R51   CG2R51   OG2R50     9   180.000000    10.376320     2
  CG2R61   CG2R51   CG2R51    OG311     9   180.000000     7.154640     2
  CG2R61   CG2R51   CG2R51   SG2R50     9     0.000000     1.464400     2
  CG2R61   CG2R51   CG2R51    HGR51     9     0.000000     0.125520     2
  CG2R61   CG2R51   CG2R51    HGR52     9     0.000000     0.794960     2
  CG2R61   CG2R51   CG2R52    CG331     9     0.000000     0.209200     2
  CG2R61   CG2R51   CG2R52   NG2R50     9   180.000000    14.434800     2
  CG2R61   CG2R51   CG2R52    HGR52     9     0.000000     2.217520     2
  CG2R61   CG2R51   CG2R53    OG2D1     9     0.000000     0.083680     2
  CG2R61   CG2R51   CG2R53   OG3C51     9     0.000000     1.757280     1
  CG2R61   CG2R51   CG2R53   OG3C51     9     0.000000     0.000000     2
  CG2R61   CG2R51   CG3C52   CG3C52     9     0.000000     0.125520     2
  CG2R61   CG2R51   CG3C52   CG3C52     9     0.000000     1.548080     3
  CG2R61   CG2R51   CG3C52   NG3C51     9     0.000000     1.840960     2
  CG2R61   CG2R51   CG3C52   NG3C51     9   180.000000     8.702720     3
  CG2R61   CG2R51   CG3C52     HGA2     9     0.000000     0.000000     3
  CG2R61   CG2R51   CG3C54    NG3P2     9     0.000000     0.083680     2
  CG2R61   CG2R51   CG3C54    NG3P2     9   180.000000    11.003920     3
  CG2R61   CG2R51   CG3C54     HGA2     9     0.000000     0.000000     3
  CG2R61   CG2R51   NG2R50   CG2R53     9   180.000000    18.828000     2
  CG2R61   CG2R51   NG2R51   CG2R51     9     0.000000     0.000000     2
  CG2R61   CG2R51   NG2R51   CG2RC0     9   180.000000    16.903360     2
  CG2R61   CG2R51   NG2R51     HGP1     9     0.000000     1.129680     2
  CG2R61   CG2R51   NG2R52   CG2RC0     9     0.000000     0.000000     2
  CG2R61   CG2R51   NG2R52    NG3N1     9   180.000000     9.414000     2
  CG2R61   CG2R51   OG2R50   CG2R51     9   180.000000    38.994880     2
  CG2R61   CG2R52   CG2R52    CG331     9     0.000000     0.083680     2
  CG2R61   CG2R52   CG2R52   NG2R50     9     0.000000     0.041840     2
  CG2R61   CG2R52   CG2RC0   CG2R61     9     0.000000     0.000000     2
  CG2R61   CG2R52   CG2RC0   CG2RC0     9     0.000000     0.000000     2
  CG2R61   CG2R52   NG2R50   NG2R51     9   180.000000    21.003680     2
  CG2R61   CG2R52   NG2R50   OG2R50     9   180.000000    29.329840     2
  CG2R61   CG2R53   NG2R50   CG2R51     9   180.000000    16.736000     2
  CG2R61   CG2R53   NG2R50   NG2R50     9   180.000000    16.736000     2
  CG2R61   CG2R53   NG2R51   NG2R50     9   180.000000    14.518480     2
  CG2R61   CG2R53   NG2R51    SG311     9     0.000000     0.000000     2
  CG2R61   CG2R53   NG2R52   CG2RC0     9   180.000000     8.242480     2
  CG2R61   CG2R53   NG2R52    CG334     9     0.000000     0.209200     2
  CG2R61   CG2R53   NG2R52   CG3C54     9   180.000000    27.739920     2
  CG2R61   CG2R53   NG2R52     HGP2     9     0.000000     3.472720     2
  CG2R61   CG2R53   NG2RC0   CG2R61     9     0.000000     0.000000     2
  CG2R61   CG2R53   NG2RC0   CG2RC0     9   180.000000     7.489360     2
  CG2R61   CG2R53   SG2R50   CG2R51     9   180.000000    16.736000     2
  CG2R61   CG2R61   CG2R61   CG2R61     9   180.000000    12.970400     2
  CG2R61   CG2R61   CG2R61   CG2R62     9   180.000000     2.092000     2
  CG2R61   CG2R61   CG2R61   CG2R63     9   180.000000    13.388800     2
  CG2R61   CG2R61   CG2R61   CG2R64     9   180.000000    12.970400     2
  CG2R61   CG2R61   CG2R61   CG2R66     9   180.000000    12.970400     2
  CG2R61   CG2R61   CG2R61   CG2R67     9   180.000000    12.970400     2
  CG2R61   CG2R61   CG2R61   CG2R71     9   180.000000     2.008320     2
  CG2R61   CG2R61   CG2R61   CG2RC0     9   180.000000    12.552000     2
  CG2R61   CG2R61   CG2R61    CG301     9   180.000000    12.970400     2
  CG2R61   CG2R61   CG2R61    CG302     9   180.000000    12.970400     2
  CG2R61   CG2R61   CG2R61    CG311     9   180.000000    12.970400     2
  CG2R61   CG2R61   CG2R61    CG312     9   180.000000    12.970400     2
  CG2R61   CG2R61   CG2R61    CG314     9   180.000000    12.970400     2
  CG2R61   CG2R61   CG2R61    CG321     9   180.000000    12.970400     2
  CG2R61   CG2R61   CG2R61    CG322     9   180.000000    12.970400     2
  CG2R61   CG2R61   CG2R61    CG324     9   180.000000    12.970400     2
  CG2R61   CG2R61   CG2R61    CG331     9   180.000000    12.970400     2
  CG2R61   CG2R61   CG2R61   CG3C31     9   180.000000    12.970400     2
  CG2R61   CG2R61   CG2R61   CG3C41     9   180.000000    12.970400     2
  CG2R61   CG2R61   CG2R61   CG3C50     9   180.000000     8.409840     2
  CG2R61   CG2R61   CG2R61   CG3C51     9   180.000000    13.263280     2
  CG2R61   CG2R61   CG2R61   CG3C53     9   180.000000    12.970400     2
  CG2R61   CG2R61   CG2R61   CG3RC1     9   180.000000    18.493280     2
  CG2R61   CG2R61   CG2R61    NG2D1     9   180.000000    11.386338     2
  CG2R61   CG2R61   CG2R61    NG2O1     9   180.000000     8.368000     2
  CG2R61   CG2R61   CG2R61    NG2P1     9   180.000000    12.970400     2
  CG2R61   CG2R61   CG2R61   NG2R43     9   180.000000    12.970400     2
  CG2R61   CG2R61   CG2R61   NG2R51     9   180.000000    20.920000     2
  CG2R61   CG2R61   CG2R61   NG2R52     9   180.000000    12.970400     2
  CG2R61   CG2R61   CG2R61   NG2R53     9   180.000000    12.970400     2
  CG2R61   CG2R61   CG2R61   NG2R60     9   180.000000     5.020800     2
  CG2R61   CG2R61   CG2R61   NG2R61     9   180.000000    15.480800     2
  CG2R61   CG2R61   CG2R61   NG2R62     9   180.000000     5.020800     2
  CG2R61   CG2R61   CG2R61   NG2R67     9   180.000000    15.480800     2
  CG2R61   CG2R61   CG2R61   NG2RC0     9   180.000000     6.276000     2
  CG2R61   CG2R61   CG2R61    NG2S0     9   180.000000    12.970400     2
  CG2R61   CG2R61   CG2R61    NG2S1     9   180.000000    12.970400     2
  CG2R61   CG2R61   CG2R61    NG2S3     9   180.000000    20.920000     2
  CG2R61   CG2R61   CG2R61    NG301     9   180.000000     5.857600     2
  CG2R61   CG2R61   CG2R61    NG311     9   180.000000    12.970400     2
  CG2R61   CG2R61   CG2R61   NG3C51     9   180.000000    12.970400     2
  CG2R61   CG2R61   CG2R61    NG3N1     9   180.000000    12.970400     2
  CG2R61   CG2R61   CG2R61    NG3P0     9   180.000000    33.597520     2
  CG2R61   CG2R61   CG2R61    NG3P1     9   180.000000    16.736000     2
  CG2R61   CG2R61   CG2R61    OG301     9   180.000000    12.970400     2
  CG2R61   CG2R61   CG2R61    OG302     9   180.000000    12.970400     2
  CG2R61   CG2R61   CG2R61    OG303     9   180.000000    12.970400     2
  CG2R61   CG2R61   CG2R61    OG311     9   180.000000    12.970400     2
  CG2R61   CG2R61   CG2R61    OG312     9   180.000000    12.970400     2
  CG2R61   CG2R61   CG2R61   OG3R60     9   180.000000    12.970400     2
  CG2R61   CG2R61   CG2R61    SG302     9   180.000000    18.828000     2
  CG2R61   CG2R61   CG2R61    SG311     9   180.000000    18.828000     2
  CG2R61   CG2R61   CG2R61    SG3O1     9   180.000000    12.970400     2
  CG2R61   CG2R61   CG2R61    SG3O2     9   180.000000    12.552000     2
  CG2R61   CG2R61   CG2R61    SG3O3     9   180.000000    12.552000     2
  CG2R61   CG2R61   CG2R61    CLGR1     9   180.000000    12.552000     2
  CG2R61   CG2R61   CG2R61    BRGR1     9   180.000000    12.552000     2
  CG2R61   CG2R61   CG2R61     IGR1     9   180.000000     8.786400     2
  CG2R61   CG2R61   CG2R61    BG201     9   180.000000     5.857600     2
  CG2R61   CG2R61   CG2R61    HGR61     9   180.000000    17.572800     2
  CG2R61   CG2R61   CG2R61    HGR62     9   180.000000    17.572800     2
  CG2R61   CG2R61   CG2R61    OC301     9   180.000000    12.970400     2
  CG2R61   CG2R61   CG2R62   CG2R62     9   180.000000     2.092000     2
  CG2R61   CG2R61   CG2R62   CG2R63     9   180.000000    12.970400     2
  CG2R61   CG2R61   CG2R62   CG2R64     9   180.000000    12.970400     2
  CG2R61   CG2R61   CG2R62   CG2RC0     9   180.000000     2.092000     2
  CG2R61   CG2R61   CG2R62    NG2O1     9   180.000000     8.368000     2
  CG2R61   CG2R61   CG2R62   NG2R60     9   180.000000     5.020800     2
  CG2R61   CG2R61   CG2R62   NG2R61     9   180.000000    29.288000     2
  CG2R61   CG2R61   CG2R62   NG2R62     9   180.000000     5.020800     2
  CG2R61   CG2R61   CG2R62   NG2RC0     9   180.000000     6.276000     2
  CG2R61   CG2R61   CG2R62   OG3R60     9   180.000000    12.970400     2
  CG2R61   CG2R61   CG2R62    SG311     9   180.000000    18.828000     2
  CG2R61   CG2R61   CG2R63   CG2R61     9     0.000000     2.970640     2
  CG2R61   CG2R61   CG2R63   NG2R61     9   180.000000     2.092000     2
  CG2R61   CG2R61   CG2R63   NG2R67     9   180.000000     2.092000     2
  CG2R61   CG2R61   CG2R63   OG3R60     9     0.000000     1.046000     2
  CG2R61   CG2R61   CG2R63    SG2D1     9   180.000000    18.828000     2
  CG2R61   CG2R61   CG2R64    NG2D1     9   180.000000    12.552000     2
  CG2R61   CG2R61   CG2R64    NG2O1     9   180.000000    12.552000     2
  CG2R61   CG2R61   CG2R64    NG2P1     9   180.000000    11.715200     2
  CG2R61   CG2R61   CG2R64   NG2R51     9   180.000000    16.736000     2
  CG2R61   CG2R61   CG2R64   NG2R53     9   180.000000    12.970400     2
  CG2R61   CG2R61   CG2R64   NG2R60     9   180.000000     5.020800     2
  CG2R61   CG2R61   CG2R64   NG2R61     9   180.000000    16.819680     2
  CG2R61   CG2R61   CG2R64   NG2R62     9   180.000000     5.020800     2
  CG2R61   CG2R61   CG2R64   NG2R67     9   180.000000    29.288000     2
  CG2R61   CG2R61   CG2R64    NG2S0     9   180.000000    12.468320     2
  CG2R61   CG2R61   CG2R64    NG2S1     9   180.000000    12.970400     2
  CG2R61   CG2R61   CG2R64    NG2S3     9   180.000000     8.368000     2
  CG2R61   CG2R61   CG2R64    NG301     9   180.000000    12.970400     2
  CG2R61   CG2R61   CG2R64    NG311     9   180.000000    12.970400     2
  CG2R61   CG2R61   CG2R64    NG3N1     9   180.000000    12.970400     2
  CG2R61   CG2R61   CG2R66   CG2R61     9   180.000000    12.970400     2
  CG2R61   CG2R61   CG2R66   CG2R62     9   180.000000    12.970400     2
  CG2R61   CG2R61   CG2R66   CG2R63     9   180.000000    12.970400     2
  CG2R61   CG2R61   CG2R66   CG2R64     9   180.000000    12.970400     2
  CG2R61   CG2R61   CG2R66   CG2R66     9   180.000000    12.970400     2
  CG2R61   CG2R61   CG2R66   CG2R67     9   180.000000    12.970400     2
  CG2R61   CG2R61   CG2R66   CG2RC0     9   180.000000    12.970400     2
  CG2R61   CG2R61   CG2R66   NG2R60     9   180.000000     5.020800     2
  CG2R61   CG2R61   CG2R66   NG2R62     9   180.000000     5.020800     2
  CG2R61   CG2R61   CG2R66   NG2RC0     9   180.000000     6.276000     2
  CG2R61   CG2R61   CG2R66     FGR1     9   180.000000    18.828000     2
  CG2R61   CG2R61   CG2R67   CG2R61     9   180.000000    12.970400     2
  CG2R61   CG2R61   CG2R67   CG2R62     9   180.000000    12.970400     2
  CG2R61   CG2R61   CG2R67   CG2R66     9   180.000000    12.970400     2
  CG2R61   CG2R61   CG2R67   CG2R67     9   180.000000    12.970400     2
  CG2R61   CG2R61   CG2R67   CG2RC0     9   180.000000     1.046000     2
  CG2R61   CG2R61   CG2R67   NG2R60     9   180.000000     5.020800     2
  CG2R61   CG2R61   CG2R67   NG2R67     9   180.000000    12.970400     2
  CG2R61   CG2R61   CG2R71    NG2P1     9   180.000000    30.710560     2
  CG2R61   CG2R61   CG2R71    NG2P1     9     0.000000     6.694400     4
  CG2R61   CG2R61   CG2RC0   CG251O     9   180.000000    12.552000     2
  CG2R61   CG2R61   CG2RC0   CG252O     9   180.000000    12.552000     2
  CG2R61   CG2R61   CG2RC0   CG25C1     9   180.000000    12.552000     2
  CG2R61   CG2R61   CG2RC0   CG25C2     9   180.000000    12.552000     2
  CG2R61   CG2R61   CG2RC0   CG2R51     9   180.000000    16.736000     2
  CG2R61   CG2R61   CG2RC0   CG2R52     9   180.000000     6.276000     2
  CG2R61   CG2R61   CG2RC0   CG2R53     9   180.000000     6.276000     2
  CG2R61   CG2R61   CG2RC0   CG2R57     9   180.000000    16.736000     2
  CG2R61   CG2R61   CG2RC0   CG2R67     9   180.000000     1.046000     2
  CG2R61   CG2R61   CG2RC0   CG2RC0     9   180.000000    12.552000     2
  CG2R61   CG2R61   CG2RC0   CG3C31     9   180.000000    16.987040     2
  CG2R61   CG2R61   CG2RC0   CG3C41     9   180.000000    12.552000     2
  CG2R61   CG2R61   CG2RC0   CG3C50     9   180.000000     0.000000     2
  CG2R61   CG2R61   CG2RC0   CG3C51     9   180.000000     0.000000     2
  CG2R61   CG2R61   CG2RC0   CG3C52     9   180.000000     0.000000     2
  CG2R61   CG2R61   CG2RC0   CG3C53     9   180.000000    18.869840     2
  CG2R61   CG2R61   CG2RC0   CG3RC1     9   180.000000     0.585760     1
  CG2R61   CG2R61   CG2RC0   CG3RC1     9     0.000000     1.255200     2
  CG2R61   CG2R61   CG2RC0   CG3RC1     9     0.000000     6.401520     3
  CG2R61   CG2R61   CG2RC0   NG2R50     9   180.000000     6.276000     2
  CG2R61   CG2R61   CG2RC0   NG2R51     9   180.000000    12.552000     2
  CG2R61   CG2R61   CG2RC0   NG2R52     9   180.000000     1.464400     2
  CG2R61   CG2R61   CG2RC0   NG2R53     9   180.000000    12.552000     2
  CG2R61   CG2R61   CG2RC0   NG2R57     9   180.000000    12.552000     2
  CG2R61   CG2R61   CG2RC0   NG2RC0     9   180.000000    14.644000     2
  CG2R61   CG2R61   CG2RC0    NG2S0     9   180.000000    21.547600     2
  CG2R61   CG2R61   CG2RC0   NG3C51     9   180.000000    25.104000     2
  CG2R61   CG2R61   CG2RC0   OG2R50     9   180.000000     0.000000     2
  CG2R61   CG2R61   CG2RC0   OG3C51     9   180.000000     8.368000     2
  CG2R61   CG2R61   CG2RC0   SG2R50     9   180.000000     0.000000     2
  CG2R61   CG2R61   CG2RC0    SG311     9   180.000000    13.556160     2
  CG2R61   CG2R61   CG2RC0    SG3O2     9   180.000000    13.095920     2
  CG2R61   CG2R61   CG2RC0    BG201     9   180.000000     3.728362     2
  CG2R61   CG2R61    CG301    CG301     9   180.000000     0.962320     2
  CG2R61   CG2R61    CG301    CG321     9   180.000000     0.962320     2
  CG2R61   CG2R61    CG301    CG324     9     0.000000     0.125520     2
  CG2R61   CG2R61    CG301    CG331     9   180.000000     0.962320     2
  CG2R61   CG2R61    CG301    NG2S1     9     0.000000     0.753120     2
  CG2R61   CG2R61    CG301    NG2S1     9     0.000000     0.041840     4
  CG2R61   CG2R61    CG301    NG2S1     9     0.000000     2.677760     6
  CG2R61   CG2R61    CG301    OG311     9   180.000000     2.928800     2
  CG2R61   CG2R61    CG302     FGA3     9     0.000000     1.255200     2
  CG2R61   CG2R61    CG311    CG2D1     9     0.000000     0.167360     2
  CG2R61   CG2R61    CG311    CG2D1     9   180.000000     1.464400     6
  CG2R61   CG2R61    CG311    CG2N2     9     0.000000     0.836800     2
  CG2R61   CG2R61    CG311    CG2O1     9     0.000000     0.836800     2
  CG2R61   CG2R61    CG311    CG2O2     9     0.000000     0.836800     2
  CG2R61   CG2R61    CG311    CG2O3     9   180.000000     0.962320     2
  CG2R61   CG2R61    CG311    CG2O5     9     0.000000     0.836800     2
  CG2R61   CG2R61    CG311   CG2R51     9   180.000000     0.962320     2
  CG2R61   CG2R61    CG311   CG2R61     9   180.000000     0.962320     2
  CG2R61   CG2R61    CG311   CG2R62     9   180.000000     0.962320     2
  CG2R61   CG2R61    CG311    CG301     9   180.000000     0.962320     2
  CG2R61   CG2R61    CG311    CG311     9   180.000000     0.962320     2
  CG2R61   CG2R61    CG311    CG314     9   180.000000     0.962320     2
  CG2R61   CG2R61    CG311    CG321     9   180.000000     0.962320     2
  CG2R61   CG2R61    CG311    CG331     9   180.000000     0.962320     2
  CG2R61   CG2R61    CG311   CG3C31     9   180.000000     0.962320     2
  CG2R61   CG2R61    CG311   CG3C51     9     0.000000     0.418400     2
  CG2R61   CG2R61    CG311   CG3C51     9   180.000000     0.334720     6
  CG2R61   CG2R61    CG311   CG3RC1     9     0.000000     6.359680     2
  CG2R61   CG2R61    CG311   CG3RC1     9     0.000000     1.840960     4
  CG2R61   CG2R61    CG311   NG2R53     9     0.000000     0.502080     2
  CG2R61   CG2R61    CG311   NG2R53     9   180.000000     0.543920     4
  CG2R61   CG2R61    CG311   NG2R53     9   180.000000     0.041840     6
  CG2R61   CG2R61    CG311    NG2S0     9     0.000000     0.502080     2
  CG2R61   CG2R61    CG311    NG2S0     9   180.000000     0.543920     4
  CG2R61   CG2R61    CG311    NG2S0     9   180.000000     0.041840     6
  CG2R61   CG2R61    CG311    NG301     9   180.000000     4.184000     2
  CG2R61   CG2R61    CG311    NG311     9   180.000000     4.184000     2
  CG2R61   CG2R61    CG311    OG311     9   180.000000     2.928800     2
  CG2R61   CG2R61    CG311   OG3C61     9   180.000000     1.673600     2
  CG2R61   CG2R61    CG311   OG3C61     9     0.000000     1.882800     4
  CG2R61   CG2R61    CG311   OG3C61     9   180.000000     1.255200     6
  CG2R61   CG2R61    CG311    SG311     9   180.000000     0.502080     2
  CG2R61   CG2R61    CG311    SG3O3     9   180.000000    24.894800     1
  CG2R61   CG2R61    CG311    SG3O3     9     0.000000     1.422560     2
  CG2R61   CG2R61    CG311    SG3O3     9   180.000000     8.786400     3
  CG2R61   CG2R61    CG311     HGA1     9   180.000000     0.418400     6
  CG2R61   CG2R61    CG312    CG321     9     0.000000     0.000000     2
  CG2R61   CG2R61    CG312    CG331     9     0.000000     3.514560     2
  CG2R61   CG2R61    CG312    CG331     9   180.000000     2.092000     6
  CG2R61   CG2R61    CG312      PG1     9   180.000000     0.627600     2
  CG2R61   CG2R61    CG312      PG2     9   180.000000     0.627600     2
  CG2R61   CG2R61    CG312     FGA2     9     0.000000     1.255200     2
  CG2R61   CG2R61    CG314   CG2DC1     9   180.000000     1.757280     2
  CG2R61   CG2R61    CG314   CG2DC1     9     0.000000     0.502080     6
  CG2R61   CG2R61    CG314   CG2DC2     9   180.000000     1.757280     2
  CG2R61   CG2R61    CG314   CG2DC2     9     0.000000     0.502080     6
  CG2R61   CG2R61    CG314    CG311     9   180.000000     0.962320     2
  CG2R61   CG2R61    CG314    CG321     9   180.000000     0.962320     2
  CG2R61   CG2R61    CG314    CG331     9   180.000000     0.962320     2
  CG2R61   CG2R61    CG314    NG2P1     9   180.000000     3.305360     1
  CG2R61   CG2R61    CG314    NG2P1     9   180.000000     2.217520     2
  CG2R61   CG2R61    CG314    NG2P1     9     0.000000     3.681920     3
  CG2R61   CG2R61    CG314    NG2P1     9   180.000000     0.460240     4
  CG2R61   CG2R61    CG314    NG2P1     9   180.000000     0.083680     6
  CG2R61   CG2R61    CG314   NG2R61     9     0.000000     0.502080     2
  CG2R61   CG2R61    CG314   NG2R61     9   180.000000     0.543920     4
  CG2R61   CG2R61    CG314   NG2R61     9   180.000000     0.041840     6
  CG2R61   CG2R61    CG314    NG3P2     9     0.000000     0.836800     2
  CG2R61   CG2R61    CG314    NG3P3     9     0.000000     1.380720     2
  CG2R61   CG2R61    CG314     HGA1     9   180.000000     0.418400     6
  CG2R61   CG2R61    CG321    CG1N1     9   180.000000     1.631760     2
  CG2R61   CG2R61    CG321    CG1N1     9     0.000000     0.167360     4
  CG2R61   CG2R61    CG321    CG2N2     9     0.000000     0.418400     2
  CG2R61   CG2R61    CG321    CG2O1     9     0.000000     0.418400     2
  CG2R61   CG2R61    CG321    CG2O2     9     0.000000     0.418400     2
  CG2R61   CG2R61    CG321    CG2O3     9     0.000000     0.418400     4
  CG2R61   CG2R61    CG321   CG2R51     9   180.000000     0.962320     2
  CG2R61   CG2R61    CG321   CG2R61     9   180.000000     0.962320     2
  CG2R61   CG2R61    CG321    CG301     9   180.000000     0.962320     2
  CG2R61   CG2R61    CG321    CG311     9   180.000000     0.962320     2
  CG2R61   CG2R61    CG321    CG314     9   180.000000     0.962320     2
  CG2R61   CG2R61    CG321    CG321     9   180.000000     0.962320     2
  CG2R61   CG2R61    CG321    CG322     9     0.000000     0.794960     2
  CG2R61   CG2R61    CG321    CG322     9   180.000000     3.556400     4
  CG2R61   CG2R61    CG321    CG324     9   180.000000     2.719600     2
  CG2R61   CG2R61    CG321    CG331     9   180.000000     0.962320     2
  CG2R61   CG2R61    CG321    NG2D1     9     0.000000     0.083680     2
  CG2R61   CG2R61    CG321    NG2D1     9     0.000000     1.213360     4
  CG2R61   CG2R61    CG321    NG2D1     9   180.000000     0.585760     6
  CG2R61   CG2R61    CG321    NG2S0     9     0.000000     0.502080     2
  CG2R61   CG2R61    CG321    NG2S0     9   180.000000     0.543920     4
  CG2R61   CG2R61    CG321    NG2S0     9   180.000000     0.041840     6
  CG2R61   CG2R61    CG321    NG2S1     9     0.000000     0.497896     2
  CG2R61   CG2R61    CG321    NG2S1     9   180.000000     0.552288     4
  CG2R61   CG2R61    CG321    NG2S1     9   180.000000     0.054392     6
  CG2R61   CG2R61    CG321    NG301     9   180.000000     4.184000     2
  CG2R61   CG2R61    CG321    NG311     9   180.000000     4.184000     2
  CG2R61   CG2R61    CG321    NG321     9   180.000000     4.184000     2
  CG2R61   CG2R61    CG321    OG301     9     0.000000     0.000000     2
  CG2R61   CG2R61    CG321    OG302     9     0.000000     0.000000     2
  CG2R61   CG2R61    CG321    OG303     9     0.000000     0.000000     2
  CG2R61   CG2R61    CG321    OG311     9     0.000000     0.000000     2
  CG2R61   CG2R61    CG321   OG3C61     9     0.000000     0.000000     2
  CG2R61   CG2R61    CG321      PG1     9   180.000000     0.836800     2
  CG2R61   CG2R61    CG321      PG2     9   180.000000     0.836800     2
  CG2R61   CG2R61    CG321    SG311     9   180.000000     0.501243     2
  CG2R61   CG2R61    CG321    SG3O2     9   180.000000    24.901076     1
  CG2R61   CG2R61    CG321    SG3O2     9     0.000000     1.433020     2
  CG2R61   CG2R61    CG321    SG3O2     9   180.000000     8.795186     3
  CG2R61   CG2R61    CG321     HGA2     9     0.000000     0.008368     6
  CG2R61   CG2R61    CG321        S     9     0.000000     0.497896     2
  CG2R61   CG2R61    CG321        S     9   180.000000     0.552288     4
  CG2R61   CG2R61    CG321        S     9   180.000000     0.054392     6
  CG2R61   CG2R61    CG322    CG321     9     0.000000     2.719600     2
  CG2R61   CG2R61    CG322    CG321     9     0.000000     1.255200     6
  CG2R61   CG2R61    CG322    CG331     9     0.000000     2.133840     2
  CG2R61   CG2R61    CG322    CG331     9     0.000000     5.188160     3
  CG2R61   CG2R61    CG322    CG331     9   180.000000     0.627600     6
  CG2R61   CG2R61    CG322     FGA1     9     0.000000     1.255200     2
  CG2R61   CG2R61    CG324    NG2P1     9     0.000000     0.083680     2
  CG2R61   CG2R61    CG324    NG2P1     9     0.000000     2.050160     4
  CG2R61   CG2R61    CG324    NG2P1     9   180.000000     0.502080     6
  CG2R61   CG2R61    CG324   NG2R61     9     0.000000     0.502080     2
  CG2R61   CG2R61    CG324   NG2R61     9   180.000000     0.543920     4
  CG2R61   CG2R61    CG324   NG2R61     9   180.000000     0.041840     6
  CG2R61   CG2R61    CG324    NG3P1     9   180.000000     0.627600     2
  CG2R61   CG2R61    CG324    NG3P2     9     0.000000     0.836800     2
  CG2R61   CG2R61    CG324    NG3P3     9     0.000000     1.380720     2
  CG2R61   CG2R61    CG324     HGA2     9     0.000000     0.000000     2
  CG2R61   CG2R61    CG331     HGA3     9     0.000000     0.008368     6
  CG2R61   CG2R61   CG3C31    CG321     9     0.000000     1.004160     2
  CG2R61   CG2R61   CG3C31    CG324     9     0.000000     7.280160     2
  CG2R61   CG2R61   CG3C31   CG3C31     9   180.000000     9.121120     2
  CG2R61   CG2R61   CG3C31   CG3C31     9     0.000000     0.711280     6
  CG2R61   CG2R61   CG3C31     HGA1     9     0.000000     0.000000     6
  CG2R61   CG2R61   CG3C41    CG2O4     9     0.000000     7.573040     2
  CG2R61   CG2R61   CG3C41    CG2O4     9   180.000000     2.050160     3
  CG2R61   CG2R61   CG3C41    CG321     9   180.000000     0.251040     2
  CG2R61   CG2R61   CG3C41    CG321     9     0.000000     1.422560     4
  CG2R61   CG2R61   CG3C41    CG324     9     0.000000     7.070960     2
  CG2R61   CG2R61   CG3C41    CG324     9     0.000000     3.430880     4
  CG2R61   CG2R61   CG3C41   CG3C41     9     0.000000     7.656720     2
  CG2R61   CG2R61   CG3C41   CG3C41     9     0.000000     0.627600     4
  CG2R61   CG2R61   CG3C41    NG311     9     0.000000     3.347200     2
  CG2R61   CG2R61   CG3C41    NG311     9     0.000000     0.209200     6
  CG2R61   CG2R61   CG3C41    OG311     9   180.000000     4.769760     2
  CG2R61   CG2R61   CG3C41    OG311     9   180.000000     1.673600     4
  CG2R61   CG2R61   CG3C41     HGA1     9     0.000000     0.000000     3
  CG2R61   CG2R61   CG3C50   CG2R53     9     0.000000     0.334720     2
  CG2R61   CG2R61   CG3C50   CG2R53     9   180.000000     0.836800     6
  CG2R61   CG2R61   CG3C50   CG2RC0     9     0.000000     1.338880     2
  CG2R61   CG2R61   CG3C50   CG2RC0     9   180.000000     1.171520     6
  CG2R61   CG2R61   CG3C50    CG321     9     0.000000     0.125520     2
  CG2R61   CG2R61   CG3C50    CG321     9   180.000000     1.087840     6
  CG2R61   CG2R61   CG3C50    CG331     9   180.000000     1.087840     2
  CG2R61   CG2R61   CG3C50   CG3C50     9     0.000000     1.422560     2
  CG2R61   CG2R61   CG3C50   CG3C50     9     0.000000     0.251040     4
  CG2R61   CG2R61   CG3C50   CG3C51     9     0.000000     3.054320     2
  CG2R61   CG2R61   CG3C50   CG3C52     9     0.000000     0.753120     2
  CG2R61   CG2R61   CG3C50   CG3C52     9     0.000000     0.376560     6
  CG2R61   CG2R61   CG3C50   CG3RC1     9   180.000000     0.627600     2
  CG2R61   CG2R61   CG3C50   CG3RC1     9     0.000000     0.711280     4
  CG2R61   CG2R61   CG3C50   NG2R53     9   180.000000     1.799120     2
  CG2R61   CG2R61   CG3C50   NG2R53     9     0.000000     0.794960     4
  CG2R61   CG2R61   CG3C50   NG2R53     9     0.000000     0.794960     6
  CG2R61   CG2R61   CG3C50    NG3P3     9   180.000000     2.092000     2
  CG2R61   CG2R61   CG3C50    NG3P3     9     0.000000     1.171520     4
  CG2R61   CG2R61   CG3C50    OG311     9   180.000000     4.016640     2
  CG2R61   CG2R61   CG3C50    OG311     9     0.000000     0.711280     6
  CG2R61   CG2R61   CG3C50   OG3C51     9   180.000000     2.301200     2
  CG2R61   CG2R61   CG3C51   CG2R51     9   180.000000     2.050160     2
  CG2R61   CG2R61   CG3C51   CG2R51     9     0.000000     0.334720     4
  CG2R61   CG2R61   CG3C51   CG2RC0     9   180.000000     0.669440     2
  CG2R61   CG2R61   CG3C51   CG3C52     9     0.000000     0.292880     2
  CG2R61   CG2R61   CG3C51   CG3C52     9     0.000000     0.125520     6
  CG2R61   CG2R61   CG3C51   NG3C51     9   180.000000     0.334720     2
  CG2R61   CG2R61   CG3C51   NG3C51     9   180.000000     4.309520     3
  CG2R61   CG2R61   CG3C51     HGA1     9     0.000000     0.000000     6
  CG2R61   CG2R61   CG3C53   CG3C52     9     0.000000     0.167360     2
  CG2R61   CG2R61   CG3C53   CG3C52     9   180.000000     1.799120     3
  CG2R61   CG2R61   CG3C53   CG3C54     9     0.000000     1.673600     2
  CG2R61   CG2R61   CG3C53   NG2R52     9     0.000000     0.920480     2
  CG2R61   CG2R61   CG3C53   NG2R52     9     0.000000     0.041840     4
  CG2R61   CG2R61   CG3C53    NG3P2     9   180.000000     1.087840     2
  CG2R61   CG2R61   CG3C53    NG3P2     9   180.000000     0.041840     3
  CG2R61   CG2R61   CG3C53     HGA1     9     0.000000     0.000000     3
  CG2R61   CG2R61   CG3C53     HGA1     9     0.000000     0.000000     6
  CG2R61   CG2R61   CG3RC1   CG3C31     9     0.000000     0.292880     2
  CG2R61   CG2R61   CG3RC1   CG3C31     9     0.000000     0.125520     4
  CG2R61   CG2R61   CG3RC1   CG3RC1     9     0.000000     0.292880     2
  CG2R61   CG2R61   CG3RC1   NG2R52     9     0.000000     0.000000     2
  CG2R61   CG2R61   CG3RC1   NG2R52     9     0.000000     2.552240     4
  CG2R61   CG2R61   CG3RC1   NG2R52     9   180.000000     1.255200     6
  CG2R61   CG2R61   CG3RC1     HGA1     9     0.000000     0.000000     6
  CG2R61   CG2R61    NG2D1   CG2D1O     9     0.000000     4.602400     2
  CG2R61   CG2R61    NG2D1   CG2D1O     9     0.000000     0.292880     4
  CG2R61   CG2R61    NG2D1   CG2D2O     9     0.000000     4.602400     2
  CG2R61   CG2R61    NG2D1   CG2D2O     9     0.000000     0.292880     4
  CG2R61   CG2R61    NG2D1   CG2DC1     9   180.000000     2.301200     2
  CG2R61   CG2R61    NG2D1   CG2DC1     9   180.000000     0.794960     4
  CG2R61   CG2R61    NG2D1   CG2DC2     9   180.000000     2.301200     2
  CG2R61   CG2R61    NG2D1   CG2DC2     9   180.000000     0.794960     4
  CG2R61   CG2R61    NG2D1    CG2O1     9     0.000000    15.896271     1
  CG2R61   CG2R61    NG2D1    CG2O1     9   180.000000    13.764105     2
  CG2R61   CG2R61    NG2D1    CG2O1     9     0.000000     5.599866     3
  CG2R61   CG2R61    NG2D1    CG2O1     9     0.000000     0.920480     4
  CG2R61   CG2R61    NG2D1    CG2O1     9   180.000000     2.321702     5
  CG2R61   CG2R61    NG2D1    CG2O1     9   180.000000     1.497454     6
  CG2R61   CG2R61    NG2D1    NG2D1     9   180.000000    11.296800     2
  CG2R61   CG2R61    NG2D1    NG2D1     9     0.000000     1.046000     4
  CG2R61   CG2R61    NG2D1    OG2D1     9   180.000000    10.125280     2
  CG2R61   CG2R61    NG2D1     HGP1     9   180.000000    26.191840     2
  CG2R61   CG2R61    NG2O1    OG2N1     9   180.000000     3.765600     2
  CG2R61   CG2R61    NG2P1    CG2N1     9   180.000000     3.891120     2
  CG2R61   CG2R61    NG2P1   CG2R64     9   180.000000     2.510400     2
  CG2R61   CG2R61    NG2P1    CG324     9   180.000000     1.673600     2
  CG2R61   CG2R61    NG2P1    CG334     9   180.000000     1.673600     2
  CG2R61   CG2R61    NG2P1     HGP2     9   180.000000     0.000000     2
  CG2R61   CG2R61    NG2P1     CN7B     9   180.000000     3.138000     2
  CG2R61   CG2R61   NG2R43   CG2R53     9   180.000000     3.723760     2
  CG2R61   CG2R61   NG2R43   CG3C41     9     0.000000     0.543920     1
  CG2R61   CG2R61   NG2R43   CG3C41     9   180.000000     3.096160     2
  CG2R61   CG2R61   NG2R51   CG2R51     9     0.000000     0.836800     1
  CG2R61   CG2R61   NG2R51   CG2R51     9   180.000000     4.602400     2
  CG2R61   CG2R61   NG2R51   CG2R51     9     0.000000     2.510400     3
  CG2R61   CG2R61   NG2R51   CG2R53     9     0.000000     0.836800     1
  CG2R61   CG2R61   NG2R51   CG2R53     9   180.000000     4.602400     2
  CG2R61   CG2R61   NG2R51   CG2R53     9     0.000000     2.510400     3
  CG2R61   CG2R61   NG2R51   CG2RC0     9     0.000000     0.836800     1
  CG2R61   CG2R61   NG2R51   CG2RC0     9   180.000000     4.602400     2
  CG2R61   CG2R61   NG2R51   CG2RC0     9     0.000000     2.510400     3
  CG2R61   CG2R61   NG2R51   NG2R50     9   180.000000     4.184000     2
  CG2R61   CG2R61   NG2R52   CG2R51     9   180.000000     9.832400     2
  CG2R61   CG2R61   NG2R52   CG2R53     9   180.000000     2.092000     2
  CG2R61   CG2R61   NG2R52   CG2R53     9     0.000000     0.711280     4
  CG2R61   CG2R61   NG2R52   CG2RC0     9   180.000000     6.401520     2
  CG2R61   CG2R61   NG2R52   CG3C54     9   180.000000    23.304880     2
  CG2R61   CG2R61   NG2R52   NG2R50     9   180.000000     6.568880     2
  CG2R61   CG2R61   NG2R52   NG2R50     9   180.000000     0.083680     4
  CG2R61   CG2R61   NG2R53   CG2R53     9     0.000000     0.627600     1
  CG2R61   CG2R61   NG2R53   CG2R53     9   180.000000     2.970640     2
  CG2R61   CG2R61   NG2R53   CG2R53     9     0.000000     0.167360     3
  CG2R61   CG2R61   NG2R53   CG2R53     9     0.000000     0.125520     6
  CG2R61   CG2R61   NG2R53   CG3C52     9     0.000000     1.046000     1
  CG2R61   CG2R61   NG2R53   CG3C52     9   180.000000     3.305360     2
  CG2R61   CG2R61   NG2R53   CG3C52     9     0.000000     3.096160     6
  CG2R61   CG2R61   NG2R60   CG2R61     9   180.000000     5.020800     2
  CG2R61   CG2R61   NG2R60   CG2R62     9   180.000000     5.020800     2
  CG2R61   CG2R61   NG2R60   CG2R64     9   180.000000     5.020800     2
  CG2R61   CG2R61   NG2R60   CG2R67     9   180.000000     5.020800     2
  CG2R61   CG2R61   NG2R60     HGP1     9   180.000000     3.807440     2
  CG2R61   CG2R61   NG2R61    CG2O1     9   180.000000    11.547840     2
  CG2R61   CG2R61   NG2R61   CG2R51     9   180.000000    14.309280     2
  CG2R61   CG2R61   NG2R61   CG2R61     9   180.000000     2.092000     2
  CG2R61   CG2R61   NG2R61   CG2R62     9   180.000000     2.092000     2
  CG2R61   CG2R61   NG2R61   CG2R63     9   180.000000     2.092000     2
  CG2R61   CG2R61   NG2R61   CG2R64     9   180.000000     0.125520     2
  CG2R61   CG2R61   NG2R61   CG2RC0     9     0.000000     3.472720     2
  CG2R61   CG2R61   NG2R61    CG321     9   180.000000    13.012240     2
  CG2R61   CG2R61   NG2R61    CG324     9   180.000000    22.258880     2
  CG2R61   CG2R61   NG2R61    CG331     9   180.000000     9.330320     2
  CG2R61   CG2R61   NG2R61    CG334     9   180.000000    21.045520     2
  CG2R61   CG2R61   NG2R61    NG2S3     9   180.000000     6.903600     2
  CG2R61   CG2R61   NG2R61     HGP1     9   180.000000     4.184000     2
  CG2R61   CG2R61   NG2R61     CN7B     9   180.000000    46.024000     2
  CG2R61   CG2R61   NG2R62   CG2R63     9   180.000000     8.368000     2
  CG2R61   CG2R61   NG2R62   CG2R64     9   180.000000     8.368000     2
  CG2R61   CG2R61   NG2R62   CG2RC0     9   180.000000     8.368000     2
  CG2R61   CG2R61   NG2R62   NG2R62     9   180.000000     3.347200     2
  CG2R61   CG2R61   NG2R62   NG2RC0     9   180.000000    21.924160     2
  CG2R61   CG2R61   NG2R67   CG2R64     9     0.000000     1.966480     2
  CG2R61   CG2R61   NG2R67   CG2R67     9   180.000000    18.116720     2
  CG2R61   CG2R61   NG2RC0   CG2R51     9   180.000000     0.000000     2
  CG2R61   CG2R61   NG2RC0   CG2R53     9   180.000000     0.000000     2
  CG2R61   CG2R61   NG2RC0   CG2R57     9   180.000000     0.000000     2
  CG2R61   CG2R61   NG2RC0   CG2R67     9   180.000000    10.669200     2
  CG2R61   CG2R61   NG2RC0   CG2RC0     9   180.000000     2.092000     2
  CG2R61   CG2R61   NG2RC0   NG2R50     9   180.000000    15.982880     2
  CG2R61   CG2R61    NG2S0    CG2O1     9   180.000000     5.020800     2
  CG2R61   CG2R61    NG2S0    CG2O6     9   180.000000     9.204800     2
  CG2R61   CG2R61    NG2S0    CG301     9   180.000000     7.991440     1
  CG2R61   CG2R61    NG2S0    CG301     9   180.000000     7.238320     2
  CG2R61   CG2R61    NG2S0    CG311     9   180.000000     7.987256     1
  CG2R61   CG2R61    NG2S0    CG311     9   180.000000     7.221584     2
  CG2R61   CG2R61    NG2S0    CG321     9   180.000000     7.991440     1
  CG2R61   CG2R61    NG2S0    CG321     9   180.000000     7.238320     2
  CG2R61   CG2R61    NG2S0    CG331     9   180.000000     9.204800     2
  CG2R61   CG2R61    NG2S1    CG2O1     9   180.000000     5.020800     2
  CG2R61   CG2R61    NG2S1    CG2O6     9   180.000000     5.020800     2
  CG2R61   CG2R61    NG2S1     HGP1     9   180.000000     2.092000     2
  CG2R61   CG2R61    NG2S3     HGP4     9   180.000000     5.648400     2
  CG2R61   CG2R61    NG301    CG2N2     9   180.000000     2.008320     2
  CG2R61   CG2R61    NG301    CG2N2     9     0.000000     0.502080     6
  CG2R61   CG2R61    NG301   CG2R64     9     0.000000     3.096160     2
  CG2R61   CG2R61    NG301    CG311     9   180.000000     6.276000     2
  CG2R61   CG2R61    NG301    CG311     9     0.000000     0.627600     4
  CG2R61   CG2R61    NG301    CG321     9   180.000000     6.276000     2
  CG2R61   CG2R61    NG301    CG321     9     0.000000     0.627600     4
  CG2R61   CG2R61    NG301    CG331     9   180.000000     4.016640     2
  CG2R61   CG2R61    NG301    CG331     9     0.000000     0.439320     4
  CG2R61   CG2R61    NG301    CG331     9   180.000000     0.146440     6
  CG2R61   CG2R61    NG311   CG2D1O     9     0.000000     1.297040     2
  CG2R61   CG2R61    NG311   CG2D1O     9     0.000000     0.251040     6
  CG2R61   CG2R61    NG311   CG2D2O     9     0.000000     1.297040     2
  CG2R61   CG2R61    NG311   CG2D2O     9     0.000000     0.251040     6
  CG2R61   CG2R61    NG311    CG2N2     9   180.000000    14.183760     2
  CG2R61   CG2R61    NG311   CG2R61     9     0.000000     1.840960     2
  CG2R61   CG2R61    NG311   CG2R62     9   180.000000     0.334720     2
  CG2R61   CG2R61    NG311   CG2R64     9   180.000000     0.334720     2
  CG2R61   CG2R61    NG311   CG2RC0     9     0.000000     1.840960     2
  CG2R61   CG2R61    NG311    CG301     9   180.000000     5.020800     2
  CG2R61   CG2R61    NG311    CG301     9     0.000000     1.255200     4
  CG2R61   CG2R61    NG311    CG311     9   180.000000     5.020800     2
  CG2R61   CG2R61    NG311    CG311     9     0.000000     1.255200     4
  CG2R61   CG2R61    NG311    CG321     9   180.000000     5.020800     2
  CG2R61   CG2R61    NG311    CG321     9     0.000000     1.255200     4
  CG2R61   CG2R61    NG311   CG3C50     9   180.000000     0.878640     2
  CG2R61   CG2R61    NG311   CG3C50     9     0.000000     0.125520     4
  CG2R61   CG2R61    NG311    SG3O2     9   180.000000     0.836800     2
  CG2R61   CG2R61    NG311    SG3O3     9   180.000000     0.836800     2
  CG2R61   CG2R61    NG311     HGP1     9   180.000000     2.092000     2
  CG2R61   CG2R61    NG311   HGPAM1     9   180.000000     1.338880     2
  CG2R61   CG2R61   NG3C51   CG2R51     9   180.000000     8.911920     2
  CG2R61   CG2R61   NG3C51   CG2RC0     9   180.000000     8.200640     2
  CG2R61   CG2R61   NG3C51   CG2RC0     9     0.000000     1.338880     4
  CG2R61   CG2R61   NG3C51   CG2RC0     9   180.000000     0.125520     6
  CG2R61   CG2R61   NG3C51   CG3C52     9   180.000000     4.686080     2
  CG2R61   CG2R61   NG3C51   CG3C52     9   180.000000     1.087840     4
  CG2R61   CG2R61   NG3C51   CG3C52     9   180.000000     0.627600     6
  CG2R61   CG2R61    NG3N1    NG3N1     9   180.000000     9.916080     2
  CG2R61   CG2R61    NG3N1     HGP1     9     0.000000     0.000000     2
  CG2R61   CG2R61    NG3P0    CG334     9     0.000000     3.179840     2
  CG2R61   CG2R61    NG3P0    CG334     9     0.000000    15.480800     4
  CG2R61   CG2R61    NG3P0    CG334     9   180.000000     1.297040     6
  CG2R61   CG2R61    NG3P1    CG314     9   180.000000     4.853440     2
  CG2R61   CG2R61    NG3P1    CG314     9     0.000000     1.171520     4
  CG2R61   CG2R61    NG3P1    CG314     9   180.000000     0.543920     6
  CG2R61   CG2R61    NG3P1    CG324     9   180.000000     3.179840     2
  CG2R61   CG2R61    NG3P1    CG324     9     0.000000     2.970640     4
  CG2R61   CG2R61    NG3P1    CG324     9     0.000000     0.418400     6
  CG2R61   CG2R61    NG3P1     HGP2     9     0.000000     0.209200     2
  CG2R61   CG2R61    OG301   CG2R61     9   180.000000     5.020800     2
  CG2R61   CG2R61    OG301    CG311     9   180.000000     6.778080     2
  CG2R61   CG2R61    OG301    CG311     9   180.000000     0.794960     4
  CG2R61   CG2R61    OG301    CG321     9   180.000000     6.778080     2
  CG2R61   CG2R61    OG301    CG321     9   180.000000     0.794960     4
  CG2R61   CG2R61    OG301    CG331     9   180.000000     6.610720     2
  CG2R61   CG2R61    OG301    CG331     9   180.000000     0.836800     4
  CG2R61   CG2R61    OG301   CG3C41     9   180.000000     6.778080     2
  CG2R61   CG2R61    OG301   CG3C41     9   180.000000     0.794960     4
  CG2R61   CG2R61    OG302    CG2O2     9   180.000000     3.347200     2
  CG2R61   CG2R61    OG302    CG2O2     9     0.000000     1.255200     4
  CG2R61   CG2R61    OG303      PG1     9   180.000000     5.857600     2
  CG2R61   CG2R61    OG303    SG3O1     9   180.000000     2.133840     2
  CG2R61   CG2R61    OG303    SG3O1     9     0.000000     0.627600     4
  CG2R61   CG2R61    OG303    SG3O2     9   180.000000     2.133840     2
  CG2R61   CG2R61    OG303    SG3O2     9     0.000000     0.627600     4
  CG2R61   CG2R61    OG311     HGP1     9   180.000000     4.142160     2
  CG2R61   CG2R61   OG3R60    CG2O6     9   180.000000    10.292640     2
  CG2R61   CG2R61   OG3R60   CG2R61     9     0.000000     3.179840     2
  CG2R61   CG2R61   OG3R60   CG2R63     9     0.000000     3.179840     2
  CG2R61   CG2R61   OG3R60    CG301     9   180.000000     5.188160     2
  CG2R61   CG2R61   OG3R60    CG301     9     0.000000     0.209200     4
  CG2R61   CG2R61   OG3R60    CG311     9   180.000000    10.669200     2
  CG2R61   CG2R61   OG3R60    CG311     9     0.000000     0.125520     4
  CG2R61   CG2R61   OG3R60    CG311     9     0.000000     1.840960     6
  CG2R61   CG2R61   OG3R60    CG312     9   180.000000     2.008320     2
  CG2R61   CG2R61   OG3R60    CG312     9   180.000000     0.167360     4
  CG2R61   CG2R61   OG3R60    CG321     9   180.000000     0.041840     2
  CG2R61   CG2R61   OG3R60    CG321     9   180.000000     0.502080     4
  CG2R61   CG2R61   OG3R60   CG3C41     9     0.000000     0.000000     2
  CG2R61   CG2R61   OG3R60   CG3C41     9   180.000000     1.422560     4
  CG2R61   CG2R61   OG3R60   CG3C50     9   180.000000     3.723760     2
  CG2R61   CG2R61   OG3R60   CG3C50     9   180.000000     0.460240     4
  CG2R61   CG2R61   OG3R60   CG3C50     9     0.000000     0.376560     6
  CG2R61   CG2R61   OG3R60   CG3RC1     9   180.000000     0.334720     2
  CG2R61   CG2R61   OG3R60   CG3RC1     9   180.000000     0.627600     4
  CG2R61   CG2R61   OG3R60    NG311     9   180.000000     5.983120     2
  CG2R61   CG2R61    SG311   CG2D1O     9     0.000000     0.083680     2
  CG2R61   CG2R61    SG311   CG2D2O     9     0.000000     0.083680     2
  CG2R61   CG2R61    SG311   CG2R61     9     0.000000     7.322000     2
  CG2R61   CG2R61    SG311   CG2R64     9     0.000000     7.322000     2
  CG2R61   CG2R61    SG311    CG301     9   180.000000     0.292880     1
  CG2R61   CG2R61    SG311    CG301     9     0.000000     1.422560     4
  CG2R61   CG2R61    SG311    CG311     9   180.000000     2.677760     1
  CG2R61   CG2R61    SG311    CG311     9     0.000000     1.631760     6
  CG2R61   CG2R61    SG311    CG321     9     0.000000     1.004160     1
  CG2R61   CG2R61    SG311    CG321     9     0.000000     0.000000     2
  CG2R61   CG2R61    SG311    CG331     9   180.000000     4.142160     2
  CG2R61   CG2R61    SG311    CG331     9   180.000000     0.376560     4
  CG2R61   CG2R61    SG311     HGP3     9     0.000000     0.209200     2
  CG2R61   CG2R61    SG311     HGP3     9     0.000000     0.962320     4
  CG2R61   CG2R61    SG3O1    OG2P1     9     0.000000     0.016736     6
  CG2R61   CG2R61    SG3O2   CG2R61     9     0.000000     1.255200     4
  CG2R61   CG2R61    SG3O2   CG2R61     9   180.000000     0.502080     6
  CG2R61   CG2R61    SG3O2    CG311     9     0.000000     1.422560     2
  CG2R61   CG2R61    SG3O2    CG321     9     0.000000     2.343040     2
  CG2R61   CG2R61    SG3O2    CG321     9     0.000000     0.502080     4
  CG2R61   CG2R61    SG3O2    NG2D1     9     0.000000     3.347200     4
  CG2R61   CG2R61    SG3O2    NG2D1     9     0.000000     0.125520     6
  CG2R61   CG2R61    SG3O2    NG2S0     9     0.000000     2.301200     4
  CG2R61   CG2R61    SG3O2    NG2S0     9   180.000000     0.962320     6
  CG2R61   CG2R61    SG3O2    NG301     9     0.000000     0.920480     2
  CG2R61   CG2R61    SG3O2    NG311     9     0.000000     0.920480     2
  CG2R61   CG2R61    SG3O2    NG321     9     0.000000     1.464400     2
  CG2R61   CG2R61    SG3O2    OG2P1     9     0.000000     0.000000     6
  CG2R61   CG2R61    SG3O3    CG331     9     0.000000     0.753120     2
  CG2R61   CG2R61    SG3O3    CG331     9     0.000000     0.251040     4
  CG2R61   CG2R61    SG3O3    OG2P1     9     0.000000     0.669440     6
  CG2R61   CG2R61    BG201    OG2D2     9   180.000000     4.016640     2
  CG2R61   CG2R61    BG201    OG2D2     9     0.000000     0.439320     4
  CG2R61   CG2R61    BG201    OG2D2     9   180.000000     0.146440     6
  CG2R61   CG2R61    BG201    OG311     9   180.000000     4.016640     2
  CG2R61   CG2R61    BG201    OG311     9     0.000000     0.439320     4
  CG2R61   CG2R61    BG201    OG311     9   180.000000     0.146440     6
  CG2R61   CG2R61    OC301    CC321     9   180.000000     6.778080     2
  CG2R61   CG2R61    OC301    CC321     9   180.000000     0.794960     4
  CG2R61   CG2R61      CT1        C     9   180.000000     2.305384     2
  CG2R61   CG2R61     CTD1        C     9   180.000000     2.305384     2
  CG2R61   CG2R62   CG2R62   CG2R61     9   180.000000    10.460000     2
  CG2R61   CG2R62   CG2R62   CG2R62     9   180.000000     8.368000     2
  CG2R61   CG2R62   CG2R62   CG2R63     9   180.000000    15.480800     2
  CG2R61   CG2R62   CG2R62   CG2R66     9   180.000000     8.368000     2
  CG2R61   CG2R62   CG2R62   CG2R67     9   180.000000    10.460000     2
  CG2R61   CG2R62   CG2R62    CG331     9     0.000000     0.334720     2
  CG2R61   CG2R62   CG2R62    NG2O1     9   180.000000    13.890880     2
  CG2R61   CG2R62   CG2R62   NG2R60     9   180.000000    12.970400     2
  CG2R61   CG2R62   CG2R62   NG2R61     9   180.000000    14.644000     2
  CG2R61   CG2R62   CG2R62   NG2R62     9   180.000000    12.970400     2
  CG2R61   CG2R62   CG2R62   NG2R67     9   180.000000    14.644000     2
  CG2R61   CG2R62   CG2R62   NG2RC0     9   180.000000    14.644000     2
  CG2R61   CG2R62   CG2R62    NG2S3     9   180.000000     7.907760     2
  CG2R61   CG2R62   CG2R62    NG311     9   180.000000    10.794720     2
  CG2R61   CG2R62   CG2R62    NG3N1     9   180.000000    26.233680     2
  CG2R61   CG2R62   CG2R62    OG312     9   180.000000     5.439200     2
  CG2R61   CG2R62   CG2R62   OG3R60     9   180.000000    16.317600     2
  CG2R61   CG2R62   CG2R62    SG311     9   180.000000    20.627120     2
  CG2R61   CG2R62   CG2R62    HGR62     9   180.000000     4.184000     2
  CG2R61   CG2R62   CG2R62    HGR63     9   180.000000     4.184000     2
  CG2R61   CG2R62   CG2R63   CG2R62     9   180.000000     0.627600     2
  CG2R61   CG2R62   CG2R63   NG2R61     9   180.000000     7.531200     2
  CG2R61   CG2R62   CG2R63   NG2R67     9   180.000000     7.531200     2
  CG2R61   CG2R62   CG2R63    OG2D4     9   180.000000     4.184000     2
  CG2R61   CG2R62   CG2R63   OG3R60     9   180.000000     1.673600     2
  CG2R61   CG2R62   CG2R63    SG2D1     9   180.000000    18.828000     2
  CG2R61   CG2R62   CG2R64   NG2R61     9   180.000000    29.288000     2
  CG2R61   CG2R62   CG2R64   NG2R62     9   180.000000     2.510400     2
  CG2R61   CG2R62   CG2RC0   CG2RC0     9   180.000000    12.552000     2
  CG2R61   CG2R62   CG2RC0   NG2R61     9   180.000000    15.355280     2
  CG2R61   CG2R62    NG2O1   CG2R62     9   180.000000    12.008080     2
  CG2R61   CG2R62   NG2R60   CG2R62     9   180.000000     5.020800     2
  CG2R61   CG2R62   NG2R60   CG2R64     9   180.000000     5.020800     2
  CG2R61   CG2R62   NG2R60   CG2R67     9   180.000000     5.020800     2
  CG2R61   CG2R62   NG2R61   CG2R62     9     0.000000     0.041840     2
  CG2R61   CG2R62   NG2R61   CG2R63     9   180.000000     2.510400     2
  CG2R61   CG2R62   NG2R61   CG2RC0     9   180.000000    16.736000     2
  CG2R61   CG2R62   NG2R61    CG314     9   180.000000    46.024000     2
  CG2R61   CG2R62   NG2R61    CG321     9   180.000000    46.024000     2
  CG2R61   CG2R62   NG2R61    CG324     9   180.000000    46.024000     2
  CG2R61   CG2R62   NG2R61    CG331     9   180.000000    46.024000     2
  CG2R61   CG2R62   NG2R61    CG334     9   180.000000    46.024000     2
  CG2R61   CG2R62   NG2R61    OG301     9   180.000000    14.685840     2
  CG2R61   CG2R62   NG2R61     HGP1     9   180.000000     4.184000     2
  CG2R61   CG2R62   NG2R61     HGP2     9   180.000000     4.184000     2
  CG2R61   CG2R62   NG2R62   CG2R64     9   180.000000     8.368000     2
  CG2R61   CG2R62   NG2R62   CG2RC0     9   180.000000     8.368000     2
  CG2R61   CG2R62   NG2RC0   CG2R51     9   180.000000     0.000000     2
  CG2R61   CG2R62   NG2RC0   CG2R67     9     0.000000     0.000000     2
  CG2R61   CG2R62   NG2RC0   CG2RC0     9   180.000000     2.092000     2
  CG2R61   CG2R62   NG2RC0   CG3C54     9   180.000000     5.648400     2
  CG2R61   CG2R62   OG3R60   CG2R62     9     0.000000     3.179840     2
  CG2R61   CG2R62   OG3R60   CG2R63     9     0.000000     3.179840     2
  CG2R61   CG2R62    SG311   CG2R63     9     0.000000     7.322000     2
  CG2R61   CG2R63   NG2R61   CG2R61     9   180.000000     6.276000     2
  CG2R61   CG2R63   NG2R61   CG2R63     9   180.000000     2.092000     2
  CG2R61   CG2R63   NG2R61   CG2R64     9   180.000000     6.276000     2
  CG2R61   CG2R63   NG2R61     HGP1     9   180.000000    20.083200     2
  CG2R61   CG2R63   NG2R67   CG2R63     9   180.000000     6.276000     2
  CG2R61   CG2R63   NG2R67   CG2R64     9   180.000000     6.276000     2
  CG2R61   CG2R63   NG2R67   CG2R67     9   180.000000     6.276000     2
  CG2R61   CG2R63   OG3R60   CG2R61     9     0.000000     2.510400     2
  CG2R61   CG2R64    NG2D1   CG25C1     9   180.000000     0.460240     2
  CG2R61   CG2R64    NG2D1   CG25C1     9     0.000000     1.715440     4
  CG2R61   CG2R64    NG2D1   CG25C2     9   180.000000     0.460240     2
  CG2R61   CG2R64    NG2D1   CG25C2     9     0.000000     1.715440     4
  CG2R61   CG2R64    NG2D1   CG2D1O     9   180.000000    15.941040     2
  CG2R61   CG2R64    NG2D1   CG2D1O     9   180.000000     1.757280     4
  CG2R61   CG2R64    NG2D1   CG2D2O     9   180.000000    15.941040     2
  CG2R61   CG2R64    NG2D1   CG2D2O     9   180.000000     1.757280     4
  CG2R61   CG2R64    NG2D1   CG2DC1     9     0.000000     0.167360     2
  CG2R61   CG2R64    NG2D1   CG2DC1     9     0.000000     1.004160     3
  CG2R61   CG2R64    NG2D1   CG2DC2     9     0.000000     0.167360     2
  CG2R61   CG2R64    NG2D1   CG2DC2     9     0.000000     1.004160     3
  CG2R61   CG2R64    NG2D1    CG2O1     9   180.000000    12.008080     2
  CG2R61   CG2R64    NG2D1    CG2O6     9   180.000000    12.008080     2
  CG2R61   CG2R64    NG2D1   CG2R62     9   180.000000     4.184000     2
  CG2R61   CG2R64    NG2D1    CG311     9   180.000000     4.184000     2
  CG2R61   CG2R64    NG2D1    CG321     9   180.000000    22.175200     2
  CG2R61   CG2R64    NG2D1    NG3N1     9   180.000000    17.279920     2
  CG2R61   CG2R64    NG2D1     HGP1     9   180.000000    28.660400     2
  CG2R61   CG2R64    NG2O1    OG2N1     9   180.000000     3.054320     2
  CG2R61   CG2R64    NG2P1   CG2R64     9   180.000000     5.439200     2
  CG2R61   CG2R64    NG2P1   CG2R71     9   180.000000     0.543920     2
  CG2R61   CG2R64    NG2P1   CG3C54     9   180.000000    14.016400     2
  CG2R61   CG2R64    NG2P1     HGP2     9   180.000000     0.794960     2
  CG2R61   CG2R64   NG2R51   CG2R51     9     0.000000     0.836800     1
  CG2R61   CG2R64   NG2R51   CG2R51     9   180.000000     4.602400     2
  CG2R61   CG2R64   NG2R51   CG2R51     9     0.000000     2.510400     3
  CG2R61   CG2R64   NG2R51   CG2RC0     9     0.000000     0.836800     1
  CG2R61   CG2R64   NG2R51   CG2RC0     9   180.000000     4.602400     2
  CG2R61   CG2R64   NG2R51   CG2RC0     9     0.000000     2.510400     3
  CG2R61   CG2R64   NG2R51   NG2R50     9   180.000000     4.184000     2
  CG2R61   CG2R64   NG2R53   CG2R53     9     0.000000     6.192320     1
  CG2R61   CG2R64   NG2R53   CG2R53     9   180.000000     6.317840     2
  CG2R61   CG2R64   NG2R53   CG2R53     9   180.000000     0.083680     3
  CG2R61   CG2R64   NG2R53   CG2R53     9     0.000000     1.046000     4
  CG2R61   CG2R64   NG2R60   CG2R61     9   180.000000     5.020800     2
  CG2R61   CG2R64   NG2R60   CG2R64     9   180.000000     5.020800     2
  CG2R61   CG2R64   NG2R61    CG2O1     9     0.000000     0.000000     2
  CG2R61   CG2R64   NG2R61   CG2R51     9     0.000000     5.564720     2
  CG2R61   CG2R64   NG2R61   CG2R61     9   180.000000     1.087840     2
  CG2R61   CG2R64   NG2R61   CG2R62     9   180.000000     1.087840     2
  CG2R61   CG2R64   NG2R61   CG2R63     9   180.000000     2.510400     2
  CG2R61   CG2R64   NG2R61   CG2R64     9   180.000000     9.204800     2
  CG2R61   CG2R64   NG2R61   CG2RC0     9   180.000000     1.087840     2
  CG2R61   CG2R64   NG2R61    CG321     9   180.000000     6.192320     2
  CG2R61   CG2R64   NG2R61    CG324     9   180.000000     7.531200     2
  CG2R61   CG2R64   NG2R61    CG331     9   180.000000     7.740400     2
  CG2R61   CG2R64   NG2R61    CG334     9     0.000000     2.008320     2
  CG2R61   CG2R64   NG2R61   CG3C52     9   180.000000    46.024000     2
  CG2R61   CG2R64   NG2R61    NG2S3     9   180.000000    16.526800     2
  CG2R61   CG2R64   NG2R61     HGP1     9   180.000000     0.041840     2
  CG2R61   CG2R64   NG2R62   CG2R61     9   180.000000     8.368000     2
  CG2R61   CG2R64   NG2R62   CG2R62     9   180.000000     8.368000     2
  CG2R61   CG2R64   NG2R62   CG2R63     9   180.000000    25.104000     2
  CG2R61   CG2R64   NG2R62   CG2R64     9     0.000000     8.368000     2
  CG2R61   CG2R64   NG2R62   NG2R62     9   180.000000     1.589920     2
  CG2R61   CG2R64   NG2R67   CG2R61     9   180.000000    16.736000     2
  CG2R61   CG2R64   NG2R67   CG2R67     9   180.000000    16.736000     2
  CG2R61   CG2R64    NG2S0    CG2O6     9     0.000000     3.556400     1
  CG2R61   CG2R64    NG2S0    CG2O6     9     0.000000    11.296800     2
  CG2R61   CG2R64    NG2S0    CG2O6     9   180.000000     0.292880     3
  CG2R61   CG2R64    NG2S0    NG2S1     9     0.000000     5.899440     1
  CG2R61   CG2R64    NG2S0    NG2S1     9   180.000000     0.376560     2
  CG2R61   CG2R64    NG2S0    NG2S1     9     0.000000     1.171520     3
  CG2R61   CG2R64    NG2S0    NG2S1     9     0.000000     0.083680     4
  CG2R61   CG2R64    NG2S1    CG2O1     9   180.000000     5.020800     2
  CG2R61   CG2R64    NG2S1    CG2O6     9     0.000000     6.276000     1
  CG2R61   CG2R64    NG2S1    CG2O6     9   180.000000     7.949600     2
  CG2R61   CG2R64    NG2S1    CG2O6     9     0.000000     3.012480     3
  CG2R61   CG2R64    NG2S1     HGP1     9   180.000000     2.092000     2
  CG2R61   CG2R64    NG2S3     HGP4     9   180.000000     8.368000     2
  CG2R61   CG2R64    NG301    CG311     9   180.000000     3.054320     2
  CG2R61   CG2R64    NG301    CG311     9   180.000000     0.292880     3
  CG2R61   CG2R64    NG301    CG311     9   180.000000     0.585760     6
  CG2R61   CG2R64    NG301    CG321     9   180.000000     5.941280     2
  CG2R61   CG2R64    NG301    CG321     9     0.000000     0.543920     3
  CG2R61   CG2R64    NG301    CG321     9   180.000000     0.711280     6
  CG2R61   CG2R64    NG301    SG3O2     9   180.000000     6.234160     2
  CG2R61   CG2R64    NG301    SG3O2     9   180.000000     2.008320     3
  CG2R61   CG2R64    NG311   CG2R61     9   180.000000     0.292880     2
  CG2R61   CG2R64    NG311    CG321     9     0.000000     4.602400     1
  CG2R61   CG2R64    NG311    CG321     9   180.000000     8.368000     2
  CG2R61   CG2R64    NG311   HGPAM1     9   180.000000     6.694400     2
  CG2R61   CG2R64   NG3C51   CG3C52     9     0.000000     2.677760     1
  CG2R61   CG2R64   NG3C51   CG3C52     9   180.000000    21.714960     2
  CG2R61   CG2R64    NG3N1    NG3N1     9   180.000000     8.409840     2
  CG2R61   CG2R64    NG3N1    NG3N1     9   180.000000     0.753120     3
  CG2R61   CG2R64    NG3N1     HGP1     9     0.000000     0.000000     2
  CG2R61   CG2R66   CG2R66   CG2R61     9   180.000000    12.970400     2
  CG2R61   CG2R66   CG2R66   CG2R66     9   180.000000    12.970400     2
  CG2R61   CG2R66   CG2R66   CG2RC0     9   180.000000     6.485200     2
  CG2R61   CG2R66   CG2R66   NG2R60     9   180.000000     5.020800     2
  CG2R61   CG2R66   CG2R66     FGR1     9   180.000000    18.828000     2
  CG2R61   CG2R66   CG2R67   CG2R61     9   180.000000    12.970400     2
  CG2R61   CG2R66   CG2R67   CG2R67     9   180.000000    12.970400     2
  CG2R61   CG2R66   CG2R67   NG2R60     9   180.000000     5.020800     2
  CG2R61   CG2R66   CG2RC0   CG2R51     9   180.000000    16.736000     2
  CG2R61   CG2R66   CG2RC0   CG2R52     9   180.000000    16.736000     2
  CG2R61   CG2R66   CG2RC0   CG2R53     9   180.000000    16.736000     2
  CG2R61   CG2R66   CG2RC0   CG2RC0     9   180.000000    12.552000     2
  CG2R61   CG2R66   CG2RC0   CG3C50     9   180.000000     0.000000     2
  CG2R61   CG2R66   CG2RC0   CG3C51     9   180.000000     0.000000     2
  CG2R61   CG2R66   CG2RC0   CG3C52     9   180.000000     0.000000     2
  CG2R61   CG2R66   CG2RC0   CG3C53     9   180.000000    10.292640     2
  CG2R61   CG2R66   CG2RC0   NG2R50     9   180.000000     6.276000     2
  CG2R61   CG2R66   CG2RC0   NG2RC0     9   180.000000    14.644000     2
  CG2R61   CG2R66   CG2RC0   NG3C51     9   180.000000    25.104000     2
  CG2R61   CG2R66   CG2RC0   OG2R50     9   180.000000     0.000000     2
  CG2R61   CG2R66   NG2R60   CG2R66     9   180.000000     5.020800     2
  CG2R61   CG2R66   NG2R62   NG2R62     9   180.000000     3.347200     2
  CG2R61   CG2R66   NG2RC0   CG2RC0     9   180.000000     2.092000     2
  CG2R61   CG2R66   NG2RC0   NG2R50     9   180.000000     7.740400     2
  CG2R61   CG2R67   CG2R67   CG2R61     9   180.000000     3.723760     2
  CG2R61   CG2R67   CG2R67   CG2R62     9   180.000000     1.924640     2
  CG2R61   CG2R67   CG2R67   CG2R62     9     0.000000     0.962320     4
  CG2R61   CG2R67   CG2R67   CG2R64     9   180.000000     1.924640     2
  CG2R61   CG2R67   CG2R67   CG2R64     9     0.000000     0.962320     4
  CG2R61   CG2R67   CG2R67   CG2R66     9   180.000000     1.924640     2
  CG2R61   CG2R67   CG2R67   CG2R66     9     0.000000     0.962320     4
  CG2R61   CG2R67   CG2R67   CG2RC0     9   180.000000     8.368000     2
  CG2R61   CG2R67   CG2R67   NG2R60     9     0.000000     1.569000     1
  CG2R61   CG2R67   CG2R67   NG2R60     9   180.000000     3.932960     2
  CG2R61   CG2R67   CG2R67   NG2R60     9   180.000000     0.794960     3
  CG2R61   CG2R67   CG2R67   NG2R60     9     0.000000     0.669440     4
  CG2R61   CG2R67   CG2R67   NG2R62     9     0.000000     1.589920     1
  CG2R61   CG2R67   CG2R67   NG2R62     9   180.000000     3.932960     2
  CG2R61   CG2R67   CG2R67   NG2R62     9   180.000000     0.794960     3
  CG2R61   CG2R67   CG2R67   NG2R62     9     0.000000     0.669440     4
  CG2R61   CG2R67   CG2R67   OG3R60     9   180.000000     0.000000     1
  CG2R61   CG2R67   CG2R67   OG3R60     9   180.000000     4.644240     2
  CG2R61   CG2R67   CG2R67   OG3R60     9     0.000000     1.840960     3
  CG2R61   CG2R67   CG2R67   OG3R60     9   180.000000     0.000000     4
  CG2R61   CG2R67   CG2RC0   CG2R61     9   180.000000     0.209200     2
  CG2R61   CG2R67   CG2RC0   CG3C31     9   180.000000     7.907760     2
  CG2R61   CG2R67   CG2RC0   CG3C50     9   180.000000    16.568640     2
  CG2R61   CG2R67   CG2RC0   CG3C51     9   180.000000    28.242000     2
  CG2R61   CG2R67   CG2RC0   CG3C52     9   180.000000    28.242000     2
  CG2R61   CG2R67   CG2RC0   CG3C53     9   180.000000     8.158800     2
  CG2R61   CG2R67   CG2RC0   CG3RC1     9   180.000000    28.242000     2
  CG2R61   CG2R67   CG2RC0   NG2R50     9     0.000000     0.000000     2
  CG2R61   CG2R67   CG2RC0   NG2R51     9   180.000000    12.552000     2
  CG2R61   CG2R67   CG2RC0   OG2R50     9   180.000000    21.924160     2
  CG2R61   CG2R67   CG2RC0   SG2R50     9   180.000000    17.489120     2
  CG2R61   CG2R67   NG2R60   CG2R61     9   180.000000     5.020800     2
  CG2R61   CG2R67   NG2R67   CG2R61     9   180.000000     1.548080     2
  CG2R61   CG2R67   NG2R67   CG2R61     9     0.000000     1.129680     4
  CG2R61   CG2R67   NG2R67   CG2R61     9     0.000000     0.083680     6
  CG2R61   CG2R67   NG2R67   CG2R62     9   180.000000     1.548080     2
  CG2R61   CG2R67   NG2R67   CG2R62     9     0.000000     1.129680     4
  CG2R61   CG2R67   NG2R67   CG2R62     9     0.000000     0.083680     6
  CG2R61   CG2R67   NG2R67   CG2R63     9   180.000000     6.066800     2
  CG2R61   CG2R67   NG2R67   CG2R63     9   180.000000     0.585760     4
  CG2R61   CG2R67   NG2R67   CG2R64     9   180.000000     1.548080     2
  CG2R61   CG2R67   NG2R67   CG2R64     9     0.000000     1.087840     4
  CG2R61   CG2R67   NG2R67   CG2RC0     9   180.000000     1.380720     2
  CG2R61   CG2R67   NG2R67   CG2RC0     9     0.000000     0.836800     4
  CG2R61   CG2R67   NG2R67   CG2RC0     9     0.000000     1.129680     6
  CG2R61   CG2R67   NG2R67   NG2R62     9   180.000000     7.405680     2
  CG2R61   CG2R67   NG2R67   NG2R62     9     0.000000     0.125520     4
  CG2R61   CG2R71    NG2P1   CG2R64     9   180.000000    12.217280     2
  CG2R61   CG2R71    NG2P1    CG334     9   180.000000     8.409840     2
  CG2R61   CG2R71    NG2P1     HGP2     9   180.000000    26.652080     2
  CG2R61   CG2RC0   CG2RC0   CG2R61     9   180.000000    12.552000     2
  CG2R61   CG2RC0   CG2RC0   CG2R62     9   180.000000    12.552000     2
  CG2R61   CG2RC0   CG2RC0   CG2R66     9   180.000000    12.552000     2
  CG2R61   CG2RC0   CG2RC0   CG2R67     9   180.000000    11.464160     2
  CG2R61   CG2RC0   CG2RC0   CG2RC0     9     0.000000     0.125520     2
  CG2R61   CG2RC0   CG2RC0   CG3C41     9   180.000000    12.552000     2
  CG2R61   CG2RC0   CG2RC0   CG3C50     9   180.000000    12.552000     2
  CG2R61   CG2RC0   CG2RC0   CG3C51     9   180.000000    27.196000     2
  CG2R61   CG2RC0   CG2RC0   CG3C52     9   180.000000    27.196000     2
  CG2R61   CG2RC0   CG2RC0   CG3C53     9   180.000000     9.414000     2
  CG2R61   CG2RC0   CG2RC0   CG3RC1     9     0.000000     1.464400     1
  CG2R61   CG2RC0   CG2RC0   CG3RC1     9   180.000000    19.539280     2
  CG2R61   CG2RC0   CG2RC0   CG3RC1     9   180.000000     3.723760     3
  CG2R61   CG2RC0   CG2RC0   NG2R50     9   180.000000     6.276000     2
  CG2R61   CG2RC0   CG2RC0   NG2R51     9   180.000000     6.276000     2
  CG2R61   CG2RC0   CG2RC0   NG2R52     9   180.000000     6.276000     2
  CG2R61   CG2RC0   CG2RC0   NG2R53     9   180.000000    62.760000     2
  CG2R61   CG2RC0   CG2RC0   NG2R57     9   180.000000     6.276000     2
  CG2R61   CG2RC0   CG2RC0   NG2R61     9   180.000000    19.120880     2
  CG2R61   CG2RC0   CG2RC0   NG2R62     9   180.000000     0.000000     2
  CG2R61   CG2RC0   CG2RC0    NG2S0     9   180.000000     6.568880     2
  CG2R61   CG2RC0   CG2RC0   NG3C51     9   180.000000    25.104000     2
  CG2R61   CG2RC0   CG2RC0   OG2R50     9   180.000000     0.000000     2
  CG2R61   CG2RC0   CG2RC0   OG3C51     9   180.000000    16.736000     2
  CG2R61   CG2RC0   CG2RC0   SG2R50     9   180.000000     0.000000     2
  CG2R61   CG2RC0   CG2RC0    SG3O2     9     0.000000     0.000000     2
  CG2R61   CG2RC0   CG2RC0    BG201     9   180.000000     5.464722     2
  CG2R61   CG2RC0   CG3C31   CG2RC0     9   180.000000     8.242480     2
  CG2R61   CG2RC0   CG3C31   CG3C31     9   180.000000     0.000000     2
  CG2R61   CG2RC0   CG3C31   CG3C31     9   180.000000     0.000000     4
  CG2R61   CG2RC0   CG3C41   CG3C41     9   180.000000    12.552000     2
  CG2R61   CG2RC0   CG3C41     HGA2     9     0.000000     2.384880     3
  CG2R61   CG2RC0   CG3C50   CG2R52     9   180.000000     8.368000     3
  CG2R61   CG2RC0   CG3C50   CG2R53     9   180.000000     8.368000     3
  CG2R61   CG2RC0   CG3C50   CG2R61     9     0.000000     5.313680     2
  CG2R61   CG2RC0   CG3C50   CG2R61     9   180.000000     2.970640     3
  CG2R61   CG2RC0   CG3C50   CG2RC0     9   180.000000    24.727440     2
  CG2R61   CG2RC0   CG3C50   CG2RC0     9   180.000000     0.167360     3
  CG2R61   CG2RC0   CG3C50    CG302     9   180.000000     3.096160     3
  CG2R61   CG2RC0   CG3C50    CG321     9   180.000000     8.368000     3
  CG2R61   CG2RC0   CG3C50    CG331     9     0.000000     0.209200     2
  CG2R61   CG2RC0   CG3C50    CG331     9   180.000000     1.213360     3
  CG2R61   CG2RC0   CG3C50   CG3C31     9   180.000000     8.368000     3
  CG2R61   CG2RC0   CG3C50   CG3C51     9     0.000000     0.000000     2
  CG2R61   CG2RC0   CG3C50   CG3C52     9     0.000000     0.125520     2
  CG2R61   CG2RC0   CG3C50    NG311     9   180.000000     1.715440     3
  CG2R61   CG2RC0   CG3C50    NG321     9   180.000000     1.129680     2
  CG2R61   CG2RC0   CG3C50    NG321     9   180.000000     2.050160     3
  CG2R61   CG2RC0   CG3C50    NG3P3     9     0.000000     9.539520     2
  CG2R61   CG2RC0   CG3C50    NG3P3     9   180.000000     9.832400     3
  CG2R61   CG2RC0   CG3C50    OG311     9   180.000000     2.050160     2
  CG2R61   CG2RC0   CG3C50    OG311     9     0.000000     1.799120     3
  CG2R61   CG2RC0   CG3C50    OG311     9     0.000000     0.920480     4
  CG2R61   CG2RC0   CG3C50   OG3C51     9   180.000000     7.865920     2
  CG2R61   CG2RC0   CG3C51    CG2O1     9   180.000000     9.037440     2
  CG2R61   CG2RC0   CG3C51    CG2O1     9   180.000000     1.799120     3
  CG2R61   CG2RC0   CG3C51    CG2O2     9   180.000000     0.669440     3
  CG2R61   CG2RC0   CG3C51    CG2O3     9     0.000000     0.794960     2
  CG2R61   CG2RC0   CG3C51    CG2O3     9   180.000000     3.514560     3
  CG2R61   CG2RC0   CG3C51   CG2R51     9     0.000000     3.765600     3
  CG2R61   CG2RC0   CG3C51   CG2R57     9     0.000000     3.765600     3
  CG2R61   CG2RC0   CG3C51   CG2R61     9   180.000000     1.715440     3
  CG2R61   CG2RC0   CG3C51   CG2RC0     9     0.000000     3.765600     3
  CG2R61   CG2RC0   CG3C51    CG331     9   180.000000     8.368000     3
  CG2R61   CG2RC0   CG3C51   CG3C51     9   180.000000    12.552000     2
  CG2R61   CG2RC0   CG3C51   CG3C52     9   180.000000    12.552000     2
  CG2R61   CG2RC0   CG3C51   CG3RC1     9   180.000000    12.552000     2
  CG2R61   CG2RC0   CG3C51   NG2R57     9   180.000000    18.744320     2
  CG2R61   CG2RC0   CG3C51   NG2R57     9     0.000000     0.502080     3
  CG2R61   CG2RC0   CG3C51    NG321     9     0.000000     0.502080     3
  CG2R61   CG2RC0   CG3C51   NG3C51     9   180.000000    29.706400     2
  CG2R61   CG2RC0   CG3C51    NG3N1     9   180.000000     1.799120     3
  CG2R61   CG2RC0   CG3C51    OG301     9   180.000000     1.548080     2
  CG2R61   CG2RC0   CG3C51    OG301     9   180.000000     1.380720     3
  CG2R61   CG2RC0   CG3C51    OG311     9   180.000000     0.292880     2
  CG2R61   CG2RC0   CG3C51    OG311     9   180.000000     0.460240     3
  CG2R61   CG2RC0   CG3C51   OG3C51     9   180.000000    19.622960     2
  CG2R61   CG2RC0   CG3C51     HGA1     9   180.000000     2.092000     3
  CG2R61   CG2RC0   CG3C52   CG25C1     9     0.000000     3.765600     3
  CG2R61   CG2RC0   CG3C52   CG25C2     9     0.000000     3.765600     3
  CG2R61   CG2RC0   CG3C52    CG2O5     9   180.000000     4.184000     2
  CG2R61   CG2RC0   CG3C52    CG2O5     9     0.000000     1.882800     3
  CG2R61   CG2RC0   CG3C52   CG2R51     9     0.000000     3.765600     3
  CG2R61   CG2RC0   CG3C52   CG2R52     9     0.000000    14.644000     3
  CG2R61   CG2RC0   CG3C52   CG2R53     9     0.000000    14.644000     3
  CG2R61   CG2RC0   CG3C52   CG2R57     9     0.000000     3.765600     3
  CG2R61   CG2RC0   CG3C52   CG2RC0     9     0.000000     3.765600     3
  CG2R61   CG2RC0   CG3C52   CG3C50     9   180.000000    10.794720     2
  CG2R61   CG2RC0   CG3C52   CG3C50     9   180.000000     0.376560     6
  CG2R61   CG2RC0   CG3C52   CG3C51     9   180.000000    12.552000     2
  CG2R61   CG2RC0   CG3C52   CG3C52     9   180.000000    12.552000     2
  CG2R61   CG2RC0   CG3C52   CG3C53     9   180.000000     6.276000     2
  CG2R61   CG2RC0   CG3C52   CG3RC1     9   180.000000    12.552000     2
  CG2R61   CG2RC0   CG3C52   NG2R57     9   180.000000     3.096160     2
  CG2R61   CG2RC0   CG3C52   NG2R57     9     0.000000     4.476880     3
  CG2R61   CG2RC0   CG3C52   NG3C51     9   180.000000     9.037440     2
  CG2R61   CG2RC0   CG3C52   OG3C51     9   180.000000    19.618776     2
  CG2R61   CG2RC0   CG3C52     HGA2     9   180.000000     2.092000     3
  CG2R61   CG2RC0   CG3C53   CG2RC0     9     0.000000     3.765600     3
  CG2R61   CG2RC0   CG3C53   NG2R61     9   180.000000     1.004160     3
  CG2R61   CG2RC0   CG3C53     HGA1     9   180.000000     2.092000     3
  CG2R61   CG2RC0   CG3RC1   CG2RC0     9     0.000000     0.000000     2
  CG2R61   CG2RC0   CG3RC1   CG2RC0     9   180.000000     0.334720     3
  CG2R61   CG2RC0   CG3RC1    CG311     9     0.000000     0.000000     2
  CG2R61   CG2RC0   CG3RC1    CG311     9   180.000000     0.627600     3
  CG2R61   CG2RC0   CG3RC1    CG311     9   180.000000     2.510400     4
  CG2R61   CG2RC0   CG3RC1    CG321     9     0.000000     0.669440     3
  CG2R61   CG2RC0   CG3RC1    CG324     9     0.000000     0.794960     2
  CG2R61   CG2RC0   CG3RC1    CG324     9   180.000000     1.422560     3
  CG2R61   CG2RC0   CG3RC1   CG3C31     9   180.000000     3.305360     2
  CG2R61   CG2RC0   CG3RC1   CG3C31     9     0.000000     4.016640     3
  CG2R61   CG2RC0   CG3RC1   CG3C41     9     0.000000     7.405680     2
  CG2R61   CG2RC0   CG3RC1   CG3C51     9   180.000000     2.886960     2
  CG2R61   CG2RC0   CG3RC1   CG3C51     9   180.000000     0.418400     4
  CG2R61   CG2RC0   CG3RC1   CG3C52     9     0.000000     0.000000     2
  CG2R61   CG2RC0   CG3RC1   CG3RC1     9   180.000000     0.125520     2
  CG2R61   CG2RC0   CG3RC1   CG3RC1     9   180.000000     1.129680     6
  CG2R61   CG2RC0   CG3RC1    OG311     9   180.000000     0.292880     2
  CG2R61   CG2RC0   CG3RC1    OG311     9   180.000000     0.460240     3
  CG2R61   CG2RC0   CG3RC1    SG3O3     9     0.000000     1.422560     2
  CG2R61   CG2RC0   CG3RC1    SG3O3     9   180.000000     6.401520     3
  CG2R61   CG2RC0   CG3RC1     HGA1     9   180.000000     0.000000     3
  CG2R61   CG2RC0   NG2R50   CG2R51     9   180.000000    16.736000     2
  CG2R61   CG2RC0   NG2R50   CG2R52     9   180.000000    16.736000     2
  CG2R61   CG2RC0   NG2R50   CG2R53     9   180.000000    62.760000     2
  CG2R61   CG2RC0   NG2R50   CG2R57     9   180.000000    16.736000     2
  CG2R61   CG2RC0   NG2R50   CG2RC0     9   180.000000    16.736000     2
  CG2R61   CG2RC0   NG2R50   NG2R50     9   180.000000     1.171520     2
  CG2R61   CG2RC0   NG2R50   NG2R51     9   180.000000    20.166880     2
  CG2R61   CG2RC0   NG2R50   OG2R50     9   180.000000     7.112800     2
  CG2R61   CG2RC0   NG2R51   CG251O     9   180.000000    79.496000     2
  CG2R61   CG2RC0   NG2R51   CG252O     9   180.000000    79.496000     2
  CG2R61   CG2RC0   NG2R51    CG2O1     9     0.000000     0.000000     2
  CG2R61   CG2RC0   NG2R51   CG2R51     9   180.000000     6.276000     2
  CG2R61   CG2RC0   NG2R51   CG2R53     9   180.000000    79.496000     2
  CG2R61   CG2RC0   NG2R51   CG2R57     9   180.000000     6.276000     2
  CG2R61   CG2RC0   NG2R51   CG2R61     9     0.000000     1.338880     2
  CG2R61   CG2RC0   NG2R51   CG2RC0     9   180.000000     2.092000     2
  CG2R61   CG2RC0   NG2R51    CG311     9     0.000000    28.911440     2
  CG2R61   CG2RC0   NG2R51    CG322     9     0.000000     0.000000     2
  CG2R61   CG2RC0   NG2R51    CG331     9     0.000000     3.514560     2
  CG2R61   CG2RC0   NG2R51   CG3C50     9     0.000000     1.129680     2
  CG2R61   CG2RC0   NG2R51   CG3C52     9     0.000000     1.213360     2
  CG2R61   CG2RC0   NG2R51   CG3C52     9     0.000000     0.502080     4
  CG2R61   CG2RC0   NG2R51   NG2R50     9   180.000000    12.552000     2
  CG2R61   CG2RC0   NG2R51    NG3N1     9     0.000000     0.543920     2
  CG2R61   CG2RC0   NG2R51    OG301     9   180.000000     0.047698     2
  CG2R61   CG2RC0   NG2R51     HGP1     9   180.000000     0.836800     2
  CG2R61   CG2RC0   NG2R52    CG2N2     9     0.000000     2.343040     2
  CG2R61   CG2RC0   NG2R52   CG2R51     9   180.000000    50.208000     2
  CG2R61   CG2RC0   NG2R52   CG2R53     9   180.000000    50.208000     2
  CG2R61   CG2RC0   NG2R52   CG2R61     9     0.000000     0.334720     2
  CG2R61   CG2RC0   NG2R52   CG2R64     9     0.000000     0.711280     2
  CG2R61   CG2RC0   NG2R52    CG334     9   180.000000    25.104000     2
  CG2R61   CG2RC0   NG2R52   CG3C31     9     0.000000     0.000000     2
  CG2R61   CG2RC0   NG2R52   CG3C53     9   180.000000     2.594080     2
  CG2R61   CG2RC0   NG2R52   CG3C54     9   180.000000    14.685840     2
  CG2R61   CG2RC0   NG2R52    NG3N1     9     0.000000     8.535360     2
  CG2R61   CG2RC0   NG2R52     HGP2     9     0.000000     1.297040     2
  CG2R61   CG2RC0   NG2R53    CG2O1     9     0.000000     0.669440     2
  CG2R61   CG2RC0   NG2R53   CG2R53     9   180.000000    12.552000     2
  CG2R61   CG2RC0   NG2R53    CG331     9   180.000000     4.184000     2
  CG2R61   CG2RC0   NG2R53     HGP1     9     0.000000     0.000000     2
  CG2R61   CG2RC0   NG2R57   CG2R57     9     0.000000     0.585760     2
  CG2R61   CG2RC0   NG2R57   CG2R57     9   180.000000     0.251040     6
  CG2R61   CG2RC0   NG2R57   CG3C52     9   180.000000     2.217520     2
  CG2R61   CG2RC0   NG2RC0   CG2R51     9   180.000000     4.184000     2
  CG2R61   CG2RC0   NG2RC0   CG2R53     9   180.000000     4.184000     2
  CG2R61   CG2RC0   NG2RC0   CG2R57     9   180.000000     4.184000     2
  CG2R61   CG2RC0   NG2RC0   CG2R61     9   180.000000     3.347200     2
  CG2R61   CG2RC0   NG2RC0   CG2R64     9   180.000000     3.347200     2
  CG2R61   CG2RC0   NG2RC0   CG2R66     9   180.000000     3.347200     2
  CG2R61   CG2RC0   NG2RC0   CG2R67     9   180.000000    11.673360     2
  CG2R61   CG2RC0   NG2RC0   NG2R50     9     0.000000     2.384880     2
  CG2R61   CG2RC0   NG2RC0   NG2R62     9     0.000000     2.803280     2
  CG2R61   CG2RC0    NG2S0    CG2O1     9     0.000000     1.840960     2
  CG2R61   CG2RC0    NG2S0   CG3C51     9     0.000000     5.606560     1
  CG2R61   CG2RC0    NG2S0   CG3C51     9     0.000000     1.087840     2
  CG2R61   CG2RC0    NG2S0   CG3C52     9     0.000000     0.209200     1
  CG2R61   CG2RC0    NG2S0   CG3C52     9   180.000000    16.443120     2
  CG2R61   CG2RC0    NG2S0   CG3RC1     9     0.000000    17.740160     1
  CG2R61   CG2RC0    NG2S0   CG3RC1     9   180.000000    10.292640     2
  CG2R61   CG2RC0   NG3C51   CG2D1O     9     0.000000     6.150480     2
  CG2R61   CG2RC0   NG3C51   CG2D1O     9     0.000000     0.585760     4
  CG2R61   CG2RC0   NG3C51   CG2D2O     9     0.000000     6.150480     2
  CG2R61   CG2RC0   NG3C51   CG2D2O     9     0.000000     0.585760     4
  CG2R61   CG2RC0   NG3C51   CG2R61     9     0.000000     0.000000     2
  CG2R61   CG2RC0   NG3C51   CG2R62     9   180.000000     3.640080     2
  CG2R61   CG2RC0   NG3C51   CG2R62     9     0.000000    13.765360     3
  CG2R61   CG2RC0   NG3C51   CG2R64     9     0.000000     0.000000     2
  CG2R61   CG2RC0   NG3C51    CG311     9   180.000000     9.037440     2
  CG2R61   CG2RC0   NG3C51    CG311     9   180.000000     8.619040     6
  CG2R61   CG2RC0   NG3C51    CG321     9     0.000000     0.083680     2
  CG2R61   CG2RC0   NG3C51   CG3C50     9   180.000000    16.736000     2
  CG2R61   CG2RC0   NG3C51   CG3C51     9   180.000000    16.736000     2
  CG2R61   CG2RC0   NG3C51   CG3C52     9   180.000000    16.736000     2
  CG2R61   CG2RC0   NG3C51    SG3O2     9     0.000000     0.000000     2
  CG2R61   CG2RC0   NG3C51    SG3O3     9   180.000000     2.343040     2
  CG2R61   CG2RC0   NG3C51     HGP1     9     0.000000     0.000000     3
  CG2R61   CG2RC0   OG2R50   CG2R51     9   180.000000    35.564000     2
  CG2R61   CG2RC0   OG2R50   CG2R53     9   180.000000    35.564000     2
  CG2R61   CG2RC0   OG2R50   CG2R57     9   180.000000    35.564000     2
  CG2R61   CG2RC0   OG2R50   CG2RC0     9   180.000000    35.564000     2
  CG2R61   CG2RC0   OG2R50   NG2R50     9   180.000000     7.447520     2
  CG2R61   CG2RC0   OG3C51   CG3C50     9   180.000000     1.255200     2
  CG2R61   CG2RC0   OG3C51   CG3C51     9   180.000000     1.255200     2
  CG2R61   CG2RC0   OG3C51   CG3C52     9   180.000000     1.255200     2
  CG2R61   CG2RC0   SG2R50   CG251O     9   180.000000    12.552000     2
  CG2R61   CG2RC0   SG2R50   CG252O     9   180.000000    12.552000     2
  CG2R61   CG2RC0   SG2R50   CG2R51     9   180.000000    35.564000     2
  CG2R61   CG2RC0   SG2R50   CG2R53     9   180.000000    12.552000     2
  CG2R61   CG2RC0   SG2R50   CG2R57     9   180.000000    35.564000     2
  CG2R61   CG2RC0   SG2R50   CG2RC0     9   180.000000    35.564000     2
  CG2R61   CG2RC0   SG2R50   NG2R50     9   180.000000    11.464160     2
  CG2R61   CG2RC0   SG2R50   NG2R51     9   180.000000     2.594080     2
  CG2R61   CG2RC0    SG311   CG3C51     9     0.000000     0.041840     1
  CG2R61   CG2RC0    SG311   CG3C51     9     0.000000     0.041840     2
  CG2R61   CG2RC0    SG3O2   NG2R50     9   180.000000     4.602400     2
  CG2R61   CG2RC0    SG3O2   NG2R50     9     0.000000     1.213360     6
  CG2R61   CG2RC0    SG3O2    OG2P1     9     0.000000     1.966480     2
  CG2R61   CG2RC0    SG3O2    OG2P1     9   180.000000     0.209200     6
  CG2R61   CG2RC0    BG201    OG2D2     9   180.000000     9.460442     2
  CG2R61   CG2RC0    BG201    OG311     9   180.000000    10.684262     2
  CG2R61   CG2RC0    BG201   OG3C51     9     0.000000     6.279766     2
  CG2R61    CG301    CG301   CG2R61     9     0.000000     0.794960     3
  CG2R61    CG301    CG301    CG331     9     0.000000     1.715440     3
  CG2R61    CG301    CG301    OG311     9   180.000000     0.000000     3
  CG2R61    CG301    CG321    CG301     9     0.000000     0.083680     2
  CG2R61    CG301    CG321    CG301     9   180.000000     4.895280     3
  CG2R61    CG301    CG321    CG311     9   180.000000     0.167360     2
  CG2R61    CG301    CG321    CG311     9   180.000000     0.292880     3
  CG2R61    CG301    CG321    CG321     9     0.000000    12.217280     3
  CG2R61    CG301    CG321    CG324     9   180.000000     1.506240     3
  CG2R61    CG301    CG321    NG2S1     9     0.000000     2.886960     2
  CG2R61    CG301    CG321    NG2S1     9     0.000000     1.840960     3
  CG2R61    CG301    CG321     HGA2     9     0.000000     0.167360     3
  CG2R61    CG301    CG324    NG3P1     9     0.000000     0.836800     3
  CG2R61    CG301    CG324    NG3P1     9     0.000000     1.799120     4
  CG2R61    CG301    CG324     HGA2     9     0.000000     0.167360     3
  CG2R61    CG301    CG331     HGA3     9     0.000000     0.167360     3
  CG2R61    CG301    NG2S1    CG2O1     9     0.000000     0.878640     1
  CG2R61    CG301    NG2S1    CG2O1     9     0.000000     5.271840     2
  CG2R61    CG301    NG2S1    CG2O1     9   180.000000     0.920480     3
  CG2R61    CG301    NG2S1    CG2O1     9   180.000000     4.978960     4
  CG2R61    CG301    NG2S1    CG2O1     9   180.000000     1.255200     6
  CG2R61    CG301    NG2S1     HGP1     9   180.000000     9.832400     1
  CG2R61    CG301    NG2S1     HGP1     9     0.000000     0.000000     2
  CG2R61    CG301    OG311     HGP1     9     0.000000     4.518720     1
  CG2R61    CG301    OG311     HGP1     9     0.000000     2.259360     2
  CG2R61    CG301    OG311     HGP1     9     0.000000     3.221680     3
  CG2R61    CG311    CG311    CG321     9     0.000000     0.167360     3
  CG2R61    CG311    CG311    CG331     9     0.000000     0.167360     3
  CG2R61    CG311    CG311    OG311     9   180.000000     0.502080     3
  CG2R61    CG311    CG311    SG311     9     0.000000     0.000000     1
  CG2R61    CG311    CG311    SG311     9   180.000000     0.753120     2
  CG2R61    CG311    CG311    SG311     9   180.000000     0.627600     3
  CG2R61    CG311    CG311    SG311     9   180.000000     6.778080     4
  CG2R61    CG311    CG311     HGA1     9     0.000000     0.000000     3
  CG2R61    CG311    CG314    CG321     9     0.000000     0.167360     3
  CG2R61    CG311    CG314    NG3P3     9     0.000000     0.836800     3
  CG2R61    CG311    CG314     HGA1     9     0.000000     0.167360     3
  CG2R61    CG311    CG321    CG2O1     9     0.000000     0.167360     3
  CG2R61    CG311    CG321    CG2O3     9     0.000000     0.167360     3
  CG2R61    CG311    CG321   CG2R61     9     0.000000     4.309520     3
  CG2R61    CG311    CG321   CG2R62     9   180.000000     1.213360     3
  CG2R61    CG311    CG321   CG2R62     9     0.000000     0.334720     4
  CG2R61    CG311    CG321    CG301     9     0.000000     0.167360     3
  CG2R61    CG311    CG321    CG321     9     0.000000     0.167360     3
  CG2R61    CG311    CG321    CG324     9   180.000000     3.556400     3
  CG2R61    CG311    CG321   CG3C51     9   180.000000     3.138000     3
  CG2R61    CG311    CG321    NG301     9     0.000000     7.614880     3
  CG2R61    CG311    CG321    NG321     9     0.000000     3.849280     3
  CG2R61    CG311    CG321    OG311     9     0.000000     7.154640     3
  CG2R61    CG311    CG321     HGA2     9     0.000000     0.000000     3
  CG2R61    CG311    CG331     HGA3     9     0.000000     0.167360     3
  CG2R61    CG311   CG3C31   CG3C31     9   180.000000     0.167360     3
  CG2R61    CG311   CG3C31   CG3C31     9   180.000000     1.171520     6
  CG2R61    CG311   CG3C31     HGA1     9     0.000000     0.000000     1
  CG2R61    CG311   CG3C31     HGA1     9     0.000000     0.000000     3
  CG2R61    CG311   CG3C51   CG3C52     9     0.000000     4.518720     4
  CG2R61    CG311   CG3C51   CG3C52     9   180.000000     7.949600     6
  CG2R61    CG311   CG3C51   NG3C51     9   180.000000     7.698560     1
  CG2R61    CG311   CG3C51   NG3C51     9     0.000000     1.464400     6
  CG2R61    CG311   CG3C51     HGA1     9     0.000000     0.000000     3
  CG2R61    CG311   CG3RC1   CG3C41     9   180.000000    11.882560     3
  CG2R61    CG311   CG3RC1   CG3C41     9   180.000000     4.225840     4
  CG2R61    CG311   CG3RC1   CG3RC1     9     0.000000     2.803280     2
  CG2R61    CG311   CG3RC1   CG3RC1     9   180.000000     3.681920     3
  CG2R61    CG311   CG3RC1     HGA1     9     0.000000     0.000000     3
  CG2R61    CG311   NG2R53   CG2R53     9   180.000000     1.464400     1
  CG2R61    CG311   NG2R53   CG2R53     9   180.000000     0.083680     4
  CG2R61    CG311   NG2R53   CG3C52     9   180.000000     2.970640     1
  CG2R61    CG311   NG2R53   CG3C52     9     0.000000     8.493520     2
  CG2R61    CG311   NG2R53   CG3C52     9   180.000000     2.259360     6
  CG2R61    CG311    NG2S0    CG2O6     9     0.000000     6.819920     1
  CG2R61    CG311    NG2S0    CG2O6     9     0.000000     0.083680     2
  CG2R61    CG311    NG2S0    CG2O6     9     0.000000     1.213360     3
  CG2R61    CG311    NG2S0    CG2O6     9   180.000000     2.008320     4
  CG2R61    CG311    NG2S0    CG2O6     9     0.000000     0.460240     6
  CG2R61    CG311    NG2S0    CG331     9     0.000000     0.627600     1
  CG2R61    CG311    NG2S0    CG331     9     0.000000     1.087840     2
  CG2R61    CG311    NG301   CG2R61     9   180.000000     5.104480     1
  CG2R61    CG311    NG301   CG2R61     9   180.000000     2.594080     3
  CG2R61    CG311    NG301   CG2R61     9     0.000000     3.472720     4
  CG2R61    CG311    NG301   CG2R62     9   180.000000    12.049920     1
  CG2R61    CG311    NG301   CG2R62     9     0.000000     0.585760     2
  CG2R61    CG311    NG301   CG2R62     9     0.000000     5.648400     3
  CG2R61    CG311    NG301    CG321     9   180.000000     3.347200     1
  CG2R61    CG311    NG301    CG321     9     0.000000     2.092000     2
  CG2R61    CG311    NG301    CG321     9     0.000000     2.928800     3
  CG2R61    CG311    NG311    CG321     9   180.000000     3.347200     1
  CG2R61    CG311    NG311    CG321     9     0.000000     2.092000     2
  CG2R61    CG311    NG311    CG321     9     0.000000     2.928800     3
  CG2R61    CG311    NG311   HGPAM1     9     0.000000     1.255200     3
  CG2R61    CG311    OG311     HGP1     9     0.000000     4.518720     1
  CG2R61    CG311    OG311     HGP1     9     0.000000     2.259360     2
  CG2R61    CG311    OG311     HGP1     9     0.000000     3.221680     3
  CG2R61    CG311   OG3C61    CG321     9   180.000000     0.711280     1
  CG2R61    CG311   OG3C61    CG321     9     0.000000     0.000000     2
  CG2R61    CG311   OG3C61    CG321     9     0.000000     1.673600     3
  CG2R61    CG311    SG311   CG2D1O     9   180.000000     0.041840     1
  CG2R61    CG311    SG311   CG2D1O     9   180.000000     0.292880     2
  CG2R61    CG311    SG311   CG2D1O     9   180.000000     1.004160     3
  CG2R61    CG311    SG311   CG2D2O     9   180.000000     0.041840     1
  CG2R61    CG311    SG311   CG2D2O     9   180.000000     0.292880     2
  CG2R61    CG311    SG311   CG2D2O     9   180.000000     1.004160     3
  CG2R61    CG311    SG311    CG321     9   180.000000     4.560560     1
  CG2R61    CG311    SG311    CG321     9     0.000000     3.138000     3
  CG2R61    CG311    SG3O3    CG321     9   180.000000     0.920480     1
  CG2R61    CG311    SG3O3    CG321     9   180.000000     2.092000     3
  CG2R61    CG311    SG3O3    OG2P1     9     0.000000     0.376560     3
  CG2R61    CG311    SG3O3    OG2P1     9   180.000000     0.000000     4
  CG2R61    CG311      CT1        C     9     0.000000     0.167360     3
  CG2R61    CG311     CTD1        C     9     0.000000     0.167360     3
  CG2R61    CG312    CG321    CG321     9   180.000000     0.878640     3
  CG2R61    CG312    CG321    CG321     9   180.000000     4.309520     4
  CG2R61    CG312    CG321     HGA2     9     0.000000     0.000000     3
  CG2R61    CG312    CG331     HGA3     9     0.000000     0.711280     3
  CG2R61    CG312      PG1    OG2P1     9     0.000000     0.000000     3
  CG2R61    CG312      PG1    OG311     9     0.000000     0.418400     2
  CG2R61    CG312      PG1    OG311     9     0.000000     1.673600     3
  CG2R61    CG312      PG2    OG2P1     9     0.000000     0.000000     3
  CG2R61    CG314    CG321    CG311     9     0.000000     0.167360     3
  CG2R61    CG314    CG321    CG321     9     0.000000     0.167360     3
  CG2R61    CG314    CG321    NG2S1     9     0.000000     0.794960     3
  CG2R61    CG314    CG321    OG311     9     0.000000     7.029120     3
  CG2R61    CG314    CG321    SG311     9   180.000000     1.213360     1
  CG2R61    CG314    CG321    SG311     9   180.000000     0.000000     2
  CG2R61    CG314    CG321    SG311     9     0.000000     0.376560     3
  CG2R61    CG314    CG321     HGA2     9     0.000000     0.000000     3
  CG2R61    CG314    CG331     HGA3     9     0.000000     0.167360     3
  CG2R61    CG314    NG2P1    CG2N1     9     0.000000     0.334720     2
  CG2R61    CG314    NG2P1    CG2N1     9   180.000000     1.004160     6
  CG2R61    CG314    NG2P1     HGP2     9     0.000000     0.000000     2
  CG2R61    CG314    NG2P1     HGP2     9   180.000000     9.706880     6
  CG2R61    CG314   NG2R61   CG2R62     9     0.000000     0.209200     1
  CG2R61    CG314   NG2R61   CG2R62     9     0.000000     4.100320     4
  CG2R61    CG314    NG3P2    CG324     9   180.000000     7.112800     1
  CG2R61    CG314    NG3P2    CG324     9   180.000000     3.347200     2
  CG2R61    CG314    NG3P2    CG324     9     0.000000     2.426720     3
  CG2R61    CG314    NG3P2     HGP2     9     0.000000     0.418400     3
  CG2R61    CG314    NG3P3     HGP2     9     0.000000     0.167360     3
  CG2R61    CG321    CG321   CG2R61     9     0.000000     3.891120     2
  CG2R61    CG321    CG321   CG2R61     9     0.000000     2.803280     3
  CG2R61    CG321    CG321    CG301     9     0.000000     0.167360     3
  CG2R61    CG321    CG321    CG311     9     0.000000     0.167360     3
  CG2R61    CG321    CG321    CG321     9     0.000000     0.167360     3
  CG2R61    CG321    CG321   CG3C41     9     0.000000     0.167360     3
  CG2R61    CG321    CG321   CG3C51     9     0.000000     1.213360     3
  CG2R61    CG321    CG321    NG2S1     9     0.000000     0.794960     3
  CG2R61    CG321    CG321    NG301     9     0.000000     0.167360     3
  CG2R61    CG321    CG321    NG311     9     0.000000     0.167360     3
  CG2R61    CG321    CG321   OG3C61     9     0.000000     0.083680     1
  CG2R61    CG321    CG321   OG3C61     9     0.000000     5.188160     3
  CG2R61    CG321    CG321    SG311     9     0.000000     0.083680     1
  CG2R61    CG321    CG321    SG311     9     0.000000     1.213360     2
  CG2R61    CG321    CG321    SG311     9   180.000000     0.083680     3
  CG2R61    CG321    CG321     HGA2     9     0.000000     0.167360     3
  CG2R61    CG321    CG322    CG2O1     9     0.000000     2.426720     3
  CG2R61    CG321    CG322     FGA1     9     0.000000    11.087600     3
  CG2R61    CG321    CG322     HGA6     9   180.000000     6.401520     2
  CG2R61    CG321    CG322     HGA6     9     0.000000     0.083680     3
  CG2R61    CG321    CG324    NG3P1     9     0.000000     0.836800     3
  CG2R61    CG321    CG324     HGA2     9     0.000000     0.167360     3
  CG2R61    CG321    CG331     HGA3     9     0.000000     0.167360     3
  CG2R61    CG321    NG2D1    CG2N2     9     0.000000     6.359680     1
  CG2R61    CG321    NG2D1    CG2N2     9     0.000000     1.422560     2
  CG2R61    CG321    NG2D1    CG2N2     9     0.000000    11.380480     3
  CG2R61    CG321    NG2D1    CG2N2     9   180.000000     1.255200     4
  CG2R61    CG321    NG2D1    CG2N2     9   180.000000     1.004160     6
  CG2R61    CG321    NG2S0    CG2O1     9     0.000000     0.753120     1
  CG2R61    CG321    NG2S0    CG2O1     9     0.000000     1.004160     2
  CG2R61    CG321    NG2S0    CG2O1     9   180.000000     2.552240     3
  CG2R61    CG321    NG2S0    CG2O1     9   180.000000     1.799120     4
  CG2R61    CG321    NG2S0    CG2O1     9     0.000000     1.757280     6
  CG2R61    CG321    NG2S0    CG2O3     9     0.000000     0.460240     1
  CG2R61    CG321    NG2S0    CG2O3     9     0.000000     1.297040     2
  CG2R61    CG321    NG2S0    CG2O3     9   180.000000     5.564720     3
  CG2R61    CG321    NG2S0    CG2O3     9   180.000000     2.301200     4
  CG2R61    CG321    NG2S0    CG2O3     9   180.000000     0.376560     6
  CG2R61    CG321    NG2S0    CG311     9   180.000000     5.230000     1
  CG2R61    CG321    NG2S0    CG311     9   180.000000     1.213360     4
  CG2R61    CG321    NG2S0    CG331     9     0.000000     0.502080     1
  CG2R61    CG321    NG2S0    CG331     9     0.000000     1.255200     3
  CG2R61    CG321    NG2S1    CG2O1     9     0.000000     0.062760     1
  CG2R61    CG321    NG2S1    CG2O1     9     0.000000     1.246832     2
  CG2R61    CG321    NG2S1    CG2O1     9   180.000000     0.317984     3
  CG2R61    CG321    NG2S1    CG2O1     9     0.000000     2.589896     4
  CG2R61    CG321    NG2S1    CG2O1     9     0.000000     0.619232     6
  CG2R61    CG321    NG2S1     HGP1     9     0.000000     0.000000     1
  CG2R61    CG321    NG301   CG2R61     9     0.000000    11.213120     3
  CG2R61    CG321    NG301    CG311     9   180.000000     3.347200     1
  CG2R61    CG321    NG301    CG311     9     0.000000     2.092000     2
  CG2R61    CG321    NG301    CG311     9     0.000000     2.928800     3
  CG2R61    CG321    NG301    CG321     9   180.000000     3.347200     1
  CG2R61    CG321    NG301    CG321     9     0.000000     2.092000     2
  CG2R61    CG321    NG301    CG321     9     0.000000     2.928800     3
  CG2R61    CG321    NG301    CG331     9   180.000000     3.347200     1
  CG2R61    CG321    NG301    CG331     9     0.000000     2.092000     2
  CG2R61    CG321    NG301    CG331     9     0.000000     2.928800     3
  CG2R61    CG321    NG301   CG3C51     9   180.000000     0.627600     1
  CG2R61    CG321    NG301   CG3C51     9   180.000000     7.070960     3
  CG2R61    CG321    NG311   CG2R61     9     0.000000    16.359440     1
  CG2R61    CG321    NG311   CG2R61     9     0.000000    24.350880     2
  CG2R61    CG321    NG311   CG2R61     9   180.000000     6.736240     3
  CG2R61    CG321    NG311    CG321     9   180.000000     3.347200     1
  CG2R61    CG321    NG311    CG321     9     0.000000     2.092000     2
  CG2R61    CG321    NG311    CG321     9     0.000000     2.928800     3
  CG2R61    CG321    NG311    CG331     9   180.000000     3.347200     1
  CG2R61    CG321    NG311    CG331     9     0.000000     2.092000     2
  CG2R61    CG321    NG311    CG331     9     0.000000     2.928800     3
  CG2R61    CG321    NG311   HGPAM1     9     0.000000     1.255200     3
  CG2R61    CG321    NG321   HGPAM2     9     0.000000     1.255200     3
  CG2R61    CG321    OG301    CG321     9   180.000000     2.343040     1
  CG2R61    CG321    OG301    CG321     9   180.000000     1.087840     2
  CG2R61    CG321    OG301    CG321     9     0.000000     1.924640     3
  CG2R61    CG321    OG302    CG2O2     9     0.000000     0.000000     3
  CG2R61    CG321    OG303      PG1     9   180.000000     2.510400     1
  CG2R61    CG321    OG303      PG1     9     0.000000     2.719600     2
  CG2R61    CG321    OG303      PG1     9     0.000000     0.209200     3
  CG2R61    CG321    OG303      PG2     9   180.000000     2.510400     1
  CG2R61    CG321    OG303      PG2     9     0.000000     2.719600     2
  CG2R61    CG321    OG303      PG2     9     0.000000     0.209200     3
  CG2R61    CG321    OG311     HGP1     9     0.000000     8.786400     1
  CG2R61    CG321    OG311     HGP1     9     0.000000     5.857600     2
  CG2R61    CG321    OG311     HGP1     9     0.000000     3.096160     3
  CG2R61    CG321   OG3C61    CG301     9     0.000000     0.711280     1
  CG2R61    CG321   OG3C61    CG301     9     0.000000     1.338880     2
  CG2R61    CG321   OG3C61    CG301     9   180.000000     0.083680     3
  CG2R61    CG321   OG3C61    CG311     9     0.000000     0.041840     1
  CG2R61    CG321   OG3C61    CG311     9     0.000000     1.087840     2
  CG2R61    CG321   OG3C61    CG311     9   180.000000     0.000000     3
  CG2R61    CG321   OG3C61    CG311     9   180.000000     0.083680     4
  CG2R61    CG321      PG1    OG2P1     9     0.000000     0.209200     3
  CG2R61    CG321      PG1    OG311     9   180.000000     6.903600     1
  CG2R61    CG321      PG1    OG311     9     0.000000     2.092000     2
  CG2R61    CG321      PG2    OG2P1     9     0.000000     0.209200     3
  CG2R61    CG321    SG311    CG321     9   180.000000     4.568091     1
  CG2R61    CG321    SG311    CG321     9     0.000000     3.158502     3
  CG2R61    CG321    SG311    CG331     9   180.000000     4.568091     1
  CG2R61    CG321    SG311    CG331     9     0.000000     3.158502     3
  CG2R61    CG321    SG3O2    OG2P1     9     0.000000     0.621742     3
  CG2R61    CG321    SG3O2    OG303     9     0.000000     1.718369     1
  CG2R61    CG321    SG3O2    OG303     9     0.000000     1.830918     2
  CG2R61    CG321    SG3O2    OG303     9     0.000000     0.389949     3
  CG2R61    CG321        S      CT2     9     0.000000     0.062760     1
  CG2R61    CG321        S      CT2     9     0.000000     1.246832     2
  CG2R61    CG321        S      CT2     9   180.000000     0.317984     3
  CG2R61    CG321        S      CT2     9     0.000000     2.589896     4
  CG2R61    CG321        S      CT2     9     0.000000     0.619232     6
  CG2R61    CG321      CT1        C     9     0.000000     0.167360     3
  CG2R61    CG321     CTD1        C     9     0.000000     0.167360     3
  CG2R61    CG322    CG331     HGA3     9     0.000000     0.711280     3
  CG2R61    CG324    NG2P1    CG2N2     9     0.000000     0.125520     2
  CG2R61    CG324    NG2P1    CG2N2     9   180.000000     0.292880     6
  CG2R61    CG324    NG2P1    CG334     9   180.000000     5.439200     2
  CG2R61    CG324    NG2P1    CG334     9   180.000000     0.334720     3
  CG2R61    CG324   NG2R61   CG2R62     9   180.000000     0.878640     1
  CG2R61    CG324   NG2R61   CG2R62     9     0.000000     6.317840     2
  CG2R61    CG324    NG3P1    CG324     9   180.000000     7.112800     1
  CG2R61    CG324    NG3P1    CG324     9   180.000000     3.347200     2
  CG2R61    CG324    NG3P1    CG324     9     0.000000     2.426720     3
  CG2R61    CG324    NG3P1    CG334     9   180.000000     7.112800     1
  CG2R61    CG324    NG3P1    CG334     9   180.000000     3.347200     2
  CG2R61    CG324    NG3P1    CG334     9     0.000000     2.426720     3
  CG2R61    CG324    NG3P1     HGP2     9     0.000000     0.167360     3
  CG2R61    CG324    NG3P2    CG314     9   180.000000     7.112800     1
  CG2R61    CG324    NG3P2    CG314     9   180.000000     3.347200     2
  CG2R61    CG324    NG3P2    CG314     9     0.000000     2.426720     3
  CG2R61    CG324    NG3P2    CG324     9   180.000000     7.112800     1
  CG2R61    CG324    NG3P2    CG324     9   180.000000     3.347200     2
  CG2R61    CG324    NG3P2    CG324     9     0.000000     2.426720     3
  CG2R61    CG324    NG3P2    CG334     9   180.000000     2.719600     1
  CG2R61    CG324    NG3P2    CG334     9     0.000000     3.263520     3
  CG2R61    CG324    NG3P2     HGP2     9     0.000000     0.418400     3
  CG2R61    CG324    NG3P3     HGP2     9     0.000000     0.167360     3
  CG2R61   CG3C31   CG3C31   CG2R61     9     0.000000     0.167360     2
  CG2R61   CG3C31   CG3C31   CG2R61     9   180.000000     0.000000     6
  CG2R61   CG3C31   CG3C31   CG3C31     9   180.000000     8.744560     3
  CG2R61   CG3C31   CG3C31   CG3C31     9     0.000000     2.426720     6
  CG2R61   CG3C31   CG3C31     HGA1     9   180.000000     0.000000     5
  CG2R61   CG3C31   CG3C31     HGA2     9   180.000000     0.000000     5
  CG2R61   CG3C31    NG321   HGPAM2     9   180.000000     4.518720     1
  CG2R61   CG3C31    NG321   HGPAM2     9     0.000000     6.694400     2
  CG2R61   CG3C31    NG321   HGPAM2     9   180.000000     0.543920     3
  CG2R61   CG3C31    NG3P3     HGP2     9     0.000000     0.962320     3
  CG2R61   CG3C41   CG3C41   CG3C41     9     0.000000     0.167360     2
  CG2R61   CG3C41   CG3C41   CG3C41     9     0.000000     1.171520     3
  CG2R61   CG3C41   CG3C41   CG3C41     9   180.000000     1.715440     6
  CG2R61   CG3C41   CG3C41    NG311     9     0.000000     5.188160     2
  CG2R61   CG3C41   CG3C41    NG311     9   180.000000     0.083680     3
  CG2R61   CG3C41   CG3C41   OG3C51     9   180.000000     0.292880     2
  CG2R61   CG3C41   CG3C41   OG3C51     9     0.000000     0.167360     3
  CG2R61   CG3C41   CG3C41     HGA2     9   180.000000     0.000000     3
  CG2R61   CG3C41    NG311    CG321     9   180.000000     0.041840     1
  CG2R61   CG3C41    NG311    CG321     9   180.000000     0.083680     3
  CG2R61   CG3C41    NG311   HGPAM1     9   180.000000     3.723760     2
  CG2R61   CG3C41    NG311   HGPAM1     9     0.000000     1.799120     3
  CG2R61   CG3C41    OG311     HGP1     9   180.000000     0.000000     1
  CG2R61   CG3C41    OG311     HGP1     9   180.000000     4.644240     2
  CG2R61   CG3C41    OG311     HGP1     9     0.000000     1.464400     3
  CG2R61   CG3C41    OG311     HGP1     9     0.000000     0.083680     6
  CG2R61   CG3C50   CG3C50    CG331     9     0.000000     0.627600     3
  CG2R61   CG3C50   CG3C50    CG331     9   180.000000     4.142160     4
  CG2R61   CG3C50   CG3C50    CG331     9   180.000000     0.418400     6
  CG2R61   CG3C50   CG3C50   CG3C52     9     0.000000     1.673600     3
  CG2R61   CG3C50   CG3C51    CG331     9     0.000000     1.297040     3
  CG2R61   CG3C50   CG3C51    CG331     9     0.000000     2.845120     4
  CG2R61   CG3C50   CG3C51    CG331     9   180.000000     0.669440     6
  CG2R61   CG3C50   CG3C51   CG3C52     9   180.000000     1.297040     3
  CG2R61   CG3C50   CG3C51   CG3C52     9     0.000000     0.502080     4
  CG2R61   CG3C50   CG3C51     HGA1     9     0.000000     0.000000     3
  CG2R61   CG3C50   CG3C52   CG3C52     9     0.000000     0.000000     2
  CG2R61   CG3C50   CG3C52   CG3C52     9     0.000000     0.585760     3
  CG2R61   CG3C50   CG3C52   CG3C52     9     0.000000     1.297040     6
  CG2R61   CG3C50   CG3C52   CG3RC1     9     0.000000     0.669440     3
  CG2R61   CG3C50   CG3C52     HGA2     9     0.000000     0.000000     3
  CG2R61   CG3C50   CG3RC1   CG3C52     9     0.000000     0.209200     3
  CG2R61   CG3C50   CG3RC1   CG3C52     9     0.000000     0.836800     4
  CG2R61   CG3C50   CG3RC1     HGA1     9     0.000000     0.000000     3
  CG2R61   CG3C50   NG2R53   CG2R53     9     0.000000     0.543920     3
  CG2R61   CG3C50   NG2R53     HGP1     9     0.000000     8.744560     2
  CG2R61   CG3C50   NG2R53     HGP1     9   180.000000     0.209200     3
  CG2R61   CG3C50    NG3P3     HGP2     9     0.000000     1.966480     3
  CG2R61   CG3C50    OG311     HGP1     9     0.000000     7.531200     1
  CG2R61   CG3C50    OG311     HGP1     9     0.000000     5.606560     2
  CG2R61   CG3C50    OG311     HGP1     9     0.000000     3.514560     3
  CG2R61   CG3C50   OG3C51   CG3C50     9   180.000000     0.376560     2
  CG2R61   CG3C50   OG3C51   CG3C50     9   180.000000     0.920480     3
  CG2R61   CG3C51   CG3C52   CG3C52     9     0.000000     2.133840     3
  CG2R61   CG3C51   CG3C52   CG3C52     9   180.000000     0.794960     4
  CG2R61   CG3C51   CG3C52     HGA2     9     0.000000     0.000000     3
  CG2R61   CG3C51   NG3C51    CG331     9   180.000000     0.292880     3
  CG2R61   CG3C51   NG3C51    CG331     9     0.000000     0.209200     6
  CG2R61   CG3C51   NG3C51   CG3C52     9   180.000000     0.125520     3
  CG2R61   CG3C51   NG3C51   CG3C52     9     0.000000     0.836800     6
  CG2R61   CG3C53   CG3C54   NG2R52     9     0.000000     0.460240     2
  CG2R61   CG3C53   CG3C54   NG2R52     9     0.000000     4.853440     3
  CG2R61   CG3C53   CG3C54     HGA2     9     0.000000     0.000000     3
  CG2R61   CG3C53   NG2R52   CG2RC0     9     0.000000     0.627600     2
  CG2R61   CG3C53   NG2R52     HGP2     9   180.000000     2.468560     2
  CG2R61   CG3C53   NG2R52     HGP2     9     0.000000    12.677520     3
  CG2R61   CG3C53    NG3P2   CG3C54     9     0.000000     3.514560     3
  CG2R61   CG3C53    NG3P2   CG3C54     9   180.000000     1.255200     6
  CG2R61   CG3C53    NG3P2     HGP2     9     0.000000     0.083680     3
  CG2R61   CG3C53    NG3P2     HGP2     9   180.000000     0.627600     6
  CG2R61   CG3RC1   CG3RC1   CG2R61     9   180.000000     0.000000     2
  CG2R61   CG3RC1   CG3RC1   CG2R61     9     0.000000     0.000000     3
  CG2R61   CG3RC1   CG3RC1   CG2RC0     9   180.000000     0.000000     2
  CG2R61   CG3RC1   CG3RC1   CG2RC0     9     0.000000     0.000000     3
  CG2R61   CG3RC1   CG3RC1    CG331     9   180.000000     0.083680     2
  CG2R61   CG3RC1   CG3RC1    CG331     9   180.000000     4.058480     3
  CG2R61   CG3RC1   CG3RC1   CG3C31     9   180.000000     1.631760     2
  CG2R61   CG3RC1   CG3RC1   CG3C31     9   180.000000     1.966480     3
  CG2R61   CG3RC1   CG3RC1   CG3RC1     9   180.000000     0.000000     3
  CG2R61   CG3RC1   CG3RC1   CG3RC1     9   180.000000    12.510160     6
  CG2R61   CG3RC1   CG3RC1   NG2R52     9   180.000000    11.003920     2
  CG2R61   CG3RC1   CG3RC1   NG2R52     9     0.000000     0.000000     3
  CG2R61   CG3RC1   CG3RC1     HGA1     9     0.000000     0.000000     3
  CG2R61   CG3RC1   NG2R52   CG2R53     9   180.000000     5.690240     2
  CG2R61   CG3RC1   NG2R52     HGP2     9     0.000000     3.556400     2
  CG2R61    NG2D1    NG2D1   CG2R61     9   180.000000    63.596800     2
  CG2R61    NG2D1    NG2D1   CG2R61     9     0.000000     2.092000     4
  CG2R61    NG2D1    NG2D1    OG2D1     9     0.000000     7.322000     1
  CG2R61    NG2D1    NG2D1    OG2D1     9     0.000000     0.000000     2
  CG2R61    NG2D1    NG2D1    OG2D1     9     0.000000     1.631760     6
  CG2R61    NG2D1    NG2D1    OG312     9   180.000000    31.672880     1
  CG2R61    NG2D1    NG2D1    OG312     9   180.000000    52.802080     2
  CG2R61   NG2R61   NG2R62   CG2R61     9     0.000000     0.000000     2
  CG2R61   NG2R61    NG2S3     HGP4     9   180.000000     1.255200     3
  CG2R61   NG2R61    NG2S3     HGP4     9     0.000000     6.652560     4
  CG2R61   NG2R61     CN7B     CN7B     9   180.000000     0.000000     3
  CG2R61   NG2R61     CN7B     ON6B     9     0.000000     4.184000     1
  CG2R61   NG2R61     CN7B      HN7     9     0.000000     0.815880     3
  CG2R61   NG2R62   NG2R62   CG2R61     9   180.000000     5.020800     2
  CG2R61   NG2R62   NG2R62   CG2R64     9   180.000000     2.092000     2
  CG2R61   NG2R62   NG2R62   CG2R66     9   180.000000     5.020800     2
  CG2R61   NG2R62   NG2R62   CG2RC0     9   180.000000     5.020800     2
  CG2R61   NG2R62   NG2R62   NG2R62     9   180.000000    17.489120     2
  CG2R61   NG2R62   NG2RC0   CG2R51     9   180.000000    21.296560     2
  CG2R61   NG2R62   NG2RC0   CG2RC0     9     0.000000     1.589920     2
  CG2R61   NG2R62   NG2RC0   NG2R50     9   180.000000    18.744320     2
  CG2R61    NG311    SG3O2   CG2R61     9   180.000000     5.020800     1
  CG2R61    NG311    SG3O2   CG2R61     9     0.000000     5.857600     2
  CG2R61    NG311    SG3O2    CG331     9     0.000000     9.204800     2
  CG2R61    NG311    SG3O2    CG331     9     0.000000     0.836800     3
  CG2R61    NG311    SG3O2    OG2P1     9     0.000000     0.836800     3
  CG2R61    NG311    SG3O3    NG2S1     9   180.000000     4.811600     3
  CG2R61    NG311    SG3O3    OG2P1     9     0.000000     1.464400     3
  CG2R61    NG3N1    NG3N1   CG2R61     9     0.000000    11.165004     2
  CG2R61    NG3N1    NG3N1     HGP1     9   180.000000     6.694400     2
  CG2R61    OG303      PG1    OG2P1     9     0.000000     0.418400     3
  CG2R61    OG303      PG1    OG311     9     0.000000     3.974800     2
  CG2R61    OG303      PG1    OG311     9     0.000000     2.092000     3
  CG2R61    OG303    SG3O1    OG2P1     9     0.000000     0.231794     3
  CG2R61    OG303    SG3O2    CG331     9   180.000000     6.694400     1
  CG2R61    OG303    SG3O2    CG331     9     0.000000     3.347200     2
  CG2R61    OG303    SG3O2    CG331     9     0.000000     0.418400     3
  CG2R61    OG303    SG3O2    NG321     9   180.000000    13.388800     1
  CG2R61    OG303    SG3O2    NG321     9     0.000000     0.836800     2
  CG2R61    OG303    SG3O2    NG321     9     0.000000     0.836800     3
  CG2R61    OG303    SG3O2    OG2P1     9     0.000000     1.255200     3
  CG2R61    OC301    CC321     HCA2     9     0.000000     0.397480     3
  CG2R61    OC301    CC321    CC321     9     0.000000     1.004160     1
  CG2R61    OC301    CC321    CC321     9     0.000000     1.213360     2
  CG2R61    OC301    CC321    CC321     9     0.000000     0.083680     3
  CG2R61      CT1        C        N     9   180.000000    11.506000     2
  CG2R61      CT1        C        N     9     0.000000     1.255200     4
  CG2R61    NG2P1     CN7B     CN7B     9     0.000000     0.000000     1
  CG2R61    NG2P1     CN7B     ON6B     9   180.000000     5.439200     1
  CG2R61    NG2P1     CN7B     ON6B     9     0.000000     0.000000     2
  CG2R61    NG2P1     CN7B      HN7     9   180.000000     0.000000     3
   CG2D2   CG251O   CG3C52   CG3C52     9   180.000000     2.050160     2
   CG2D2   CG251O   CG3C52   CG3C52     9   180.000000     0.836800     3
   CG2D2   CG251O   CG3C52   CG3C52     9   180.000000     0.000000     6
   CG2D2   CG251O   CG3C52     HGA2     9     0.000000     0.000000     3
   CG2D2   CG251O   NG2R51   CG2RC0     9   180.000000     1.757280     2
   CG2D2   CG251O   NG2R51    CG331     9     0.000000     1.255200     2
   CG2D2   CG251O   NG3C51   CG3C52     9   180.000000     5.773920     2
   CG2D2   CG251O   NG3C51     HGP1     9   180.000000     0.083680     2
   CG2D2   CG251O   NG3C51     HGP1     9   180.000000     0.711280     3
   CG2D2   CG251O   NG3C51     HGP1     9     0.000000     0.083680     6
   CG2D2   CG251O   SG2R50   CG2RC0     9   180.000000     6.401520     2
   CG2D2   CG252O   CG3C52   CG3C52     9   180.000000     2.050160     2
   CG2D2   CG252O   CG3C52   CG3C52     9   180.000000     0.836800     3
   CG2D2   CG252O   CG3C52   CG3C52     9   180.000000     0.000000     6
   CG2D2   CG252O   CG3C52     HGA2     9     0.000000     0.000000     3
   CG2D2   CG252O   NG2R51   CG2RC0     9   180.000000     1.757280     2
   CG2D2   CG252O   NG2R51    CG331     9     0.000000     1.255200     2
   CG2D2   CG252O   NG3C51   CG3C52     9   180.000000     5.773920     2
   CG2D2   CG252O   NG3C51     HGP1     9   180.000000     0.083680     2
   CG2D2   CG252O   NG3C51     HGP1     9   180.000000     0.711280     3
   CG2D2   CG252O   NG3C51     HGP1     9     0.000000     0.083680     6
   CG2D2   CG252O   SG2R50   CG2RC0     9   180.000000     6.401520     2
   CG2D2    CG2D1    CG311    CG301     9   180.000000     2.510400     1
   CG2D2    CG2D1    CG311    CG321     9   180.000000     2.510400     1
   CG2D2    CG2D1    CG311     HGA1     9   180.000000     1.255200     3
   CG2D2    CG2D1    CG321    CG2D1     9   180.000000     5.020800     1
   CG2D2    CG2D1    CG321    CG2D1     9   180.000000     1.673600     2
   CG2D2    CG2D1    CG321    CG2D1     9   180.000000     5.439200     3
   CG2D2    CG2D1    CG321    CG321     9   180.000000     2.092000     1
   CG2D2    CG2D1    CG321    CG321     9   180.000000     5.439200     3
   CG2D2    CG2D1    CG321    CG331     9   180.000000     2.092000     1
   CG2D2    CG2D1    CG321    CG331     9   180.000000     5.439200     3
   CG2D2    CG2D1    CG321    NG311     9   180.000000     6.694400     1
   CG2D2    CG2D1    CG321    NG311     9     0.000000     1.255200     3
   CG2D2    CG2D1    CG321    OG311     9   180.000000     7.949600     1
   CG2D2    CG2D1    CG321    OG311     9   180.000000     1.673600     2
   CG2D2    CG2D1    CG321    OG311     9   180.000000     2.510400     3
   CG2D2    CG2D1    CG321    SG311     9   180.000000     2.928800     1
   CG2D2    CG2D1    CG321    SG311     9   180.000000     5.857600     3
   CG2D2    CG2D1    CG321     HGA2     9     0.000000     0.502080     3
   CG2D2    CG2D1    CG331     HGA3     9   180.000000     0.209200     3
   CG2D2    CG2D1      CT1        C     9   180.000000     2.507890     1
   CG2D2    CG2D1      CT1        C     9   180.000000     0.015481     2
   CG2D2    CG2D1      CT1        C     9   180.000000     4.371025     3
   CG2D2    CG2D1      CT1      NH1     9   180.000000     0.009623     1
   CG2D2    CG2D1      CT1      NH1     9   180.000000     0.171962     2
   CG2D2    CG2D1      CT1      NH1     9   180.000000     0.327189     3
   CG2D2   CG2D1O   NG2R61   CG2R63     9   180.000000     9.372160     1
   CG2D2   CG2D1O   NG2R61   CG2R63     9   180.000000    14.685840     2
   CG2D2   CG2D1O   NG2R61   CG2R64     9   180.000000     0.753120     1
   CG2D2   CG2D1O   NG2R61   CG2R64     9     0.000000     2.719600     2
   CG2D2   CG2D1O   NG2R61   CG2R64     9   180.000000     1.297040     3
   CG2D2   CG2D1O    NG321   HGPAM2     9     0.000000     7.112800     1
   CG2D2   CG2D1O    NG321   HGPAM2     9   180.000000    12.803040     2
   CG2D2   CG2D1O    NG321   HGPAM2     9   180.000000     0.962320     3
   CG2D2   CG2D1O    NG321   HGPAM2     9     0.000000     0.502080     4
   CG2D2   CG2D1O   NG3C51   CG2RC0     9     0.000000     1.882800     2
   CG2D2   CG2D1O   NG3C51   CG3C52     9   180.000000    11.171280     2
   CG2D2   CG2D1O   NG3C51   CG3C52     9   180.000000     0.543920     6
   CG2D2   CG2D1O    OG301    CG331     9   180.000000     3.765600     1
   CG2D2   CG2D1O    OG301    CG331     9   180.000000    12.970400     2
   CG2D2   CG2D1O    OG301    CG331     9   180.000000     5.020800     3
   CG2D2   CG2D2O   NG2R61   CG2R63     9   180.000000     9.372160     1
   CG2D2   CG2D2O   NG2R61   CG2R63     9   180.000000    14.685840     2
   CG2D2   CG2D2O   NG2R61   CG2R64     9   180.000000     0.753120     1
   CG2D2   CG2D2O   NG2R61   CG2R64     9     0.000000     2.719600     2
   CG2D2   CG2D2O   NG2R61   CG2R64     9   180.000000     1.297040     3
   CG2D2   CG2D2O    NG321   HGPAM2     9     0.000000     7.112800     1
   CG2D2   CG2D2O    NG321   HGPAM2     9   180.000000    12.803040     2
   CG2D2   CG2D2O    NG321   HGPAM2     9   180.000000     0.962320     3
   CG2D2   CG2D2O    NG321   HGPAM2     9     0.000000     0.502080     4
   CG2D2   CG2D2O   NG3C51   CG2RC0     9     0.000000     1.882800     2
   CG2D2   CG2D2O   NG3C51   CG3C52     9   180.000000    11.171280     2
   CG2D2   CG2D2O   NG3C51   CG3C52     9   180.000000     0.543920     6
   CG2D2   CG2D2O    OG301    CG331     9   180.000000     3.765600     1
   CG2D2   CG2D2O    OG301    CG331     9   180.000000    12.970400     2
   CG2D2   CG2D2O    OG301    CG331     9   180.000000     5.020800     3
  CG252O   CG252O   CG2R53    OG2D1     9   180.000000    16.736000     2
  CG252O   CG252O   CG2R53   OG3C51     9     0.000000     2.803280     2
  CG252O   CG252O   CG3C52   CG3C52     9     0.000000     1.548080     2
  CG252O   CG252O   CG3C52   CG3C52     9     0.000000     4.895280     3
  CG252O   CG252O   CG3C52     HGA2     9     0.000000     0.000000     3
  CG252O   CG252O   NG2R50   CG2R53     9     0.000000     2.301200     2
  CG252O   CG252O   NG3C51   CG3C52     9   180.000000    11.422320     2
  CG252O   CG252O   NG3C51     HGP1     9   180.000000     7.112800     2
  CG252O   CG252O   NG3C51     HGP1     9   180.000000     0.292880     3
  CG252O   CG25C2   CG2R53   NG2R51     9   180.000000    12.552000     2
  CG252O   CG25C2   CG2R53    OG2D1     9   180.000000    16.736000     2
  CG252O   CG25C2   CG2RC0   CG2R61     9   180.000000    16.736000     2
  CG252O   CG25C2   CG2RC0   CG2RC0     9   180.000000    16.736000     2
  CG252O   CG25C2   CG3C52   CG3C52     9   180.000000     5.397360     2
  CG252O   CG25C2   CG3C52   CG3C52     9   180.000000     2.886960     3
  CG252O   CG25C2   CG3C52     HGA2     9     0.000000     0.000000     3
  CG252O   CG2D2O    NG301    CG331     9   180.000000    20.501600     2
  CG252O   CG2DC2    CG2O3    OG2D2     9   180.000000    10.167120     2
  CG252O   CG2DC2   CG2R51   CG2R51     9   180.000000     0.210455     1
  CG252O   CG2DC2   CG2R51   CG2R51     9   180.000000     3.229211     2
  CG252O   CG2DC2   CG2R51   CG2R51     9     0.000000     1.817948     4
  CG252O   CG2DC2   CG2R51   CG2RC0     9   180.000000     1.681550     2
  CG252O   CG2DC2   CG2R61   CG2R61     9   180.000000     8.249174     2
  CG252O   CG2DC2   CG2R61   CG2R61     9   180.000000     0.069454     4
  CG252O   CG2DC2    CG331     HGA3     9   180.000000     1.115454     3
  CG252O   CG2R53   NG2R51   CG2R53     9   180.000000     8.368000     2
  CG252O   CG2R53   NG2R51    CG321     9   180.000000     0.083680     2
  CG252O   CG2R53   NG2R51    CG331     9   180.000000     0.001255     2
  CG252O   CG2R53   NG2R53   CG2R53     9   180.000000     6.276000     2
  CG252O   CG2R53   NG2R53    CG311     9     0.000000     6.694400     1
  CG252O   CG2R53   NG2R53    CG311     9   180.000000    10.460000     2
  CG252O   CG2R53   NG2R53    CG321     9     0.000000     6.694400     1
  CG252O   CG2R53   NG2R53    CG321     9   180.000000    10.460000     2
  CG252O   CG2R53   NG2R53    CG331     9     0.000000     6.694400     1
  CG252O   CG2R53   NG2R53    CG331     9   180.000000    10.460000     2
  CG252O   CG2R53   NG2R53     HGP1     9   180.000000     7.112800     2
  CG252O   CG2R53   OG3C51   CG2R53     9   180.000000    15.438960     2
  CG252O   CG2R61   CG2R61   CG2R61     9   180.000000    12.552000     2
  CG252O   CG2R61   CG2R61    HGR61     9   180.000000     8.368000     2
  CG252O   CG2R61   NG2R61   CG2R61     9   180.000000    10.208960     2
  CG252O   CG2R61   NG2R61    CG331     9     0.000000     0.000000     2
  CG252O   CG2RC0   CG2RC0   CG2R61     9   180.000000     6.276000     2
  CG252O   CG2RC0   CG2RC0   CG3C50     9   180.000000    20.920000     2
  CG252O   CG3C52   CG3C52   CG3C52     9   180.000000     0.125520     2
  CG252O   CG3C52   CG3C52   CG3C52     9   180.000000     2.970640     3
  CG252O   CG3C52   CG3C52   CG3C52     9     0.000000     0.794960     6
  CG252O   CG3C52   CG3C52     HGA2     9     0.000000     0.000000     3
  CG25C2   CG252O   CG2R53   NG2R53     9   180.000000    20.920000     2
  CG25C2   CG252O   CG2R53    OG2D1     9   180.000000    16.736000     2
  CG25C2   CG252O   NG2R53   CG2R53     9   180.000000    16.736000     2
  CG25C2   CG252O   NG2R53     HGP1     9   180.000000     1.673600     2
  CG25C2   CG252O    SG311   CG2R53     9     0.000000    16.736000     3
  CG25C2   CG25C1   CG2RC0   CG2R61     9   180.000000    12.552000     2
  CG25C2   CG25C1   CG2RC0   CG2RC0     9   180.000000    14.644000     2
  CG25C2   CG25C1    NG2D1    OG301     9   180.000000    24.099840     2
  CG25C2   CG2D2O    CG2O3    OG2D2     9   180.000000     0.251040     2
  CG25C2   CG2D2O    CG331     HGA3     9   180.000000     1.129680     3
  CG25C2   CG2D2O    NG301    CG321     9   180.000000    17.070720     2
  CG25C2   CG2D2O    OG311     HGP1     9     0.000000     3.305360     1
  CG25C2   CG2D2O    OG311     HGP1     9     0.000000     0.000000     2
  CG25C2   CG2D2O    OG311     HGP1     9   180.000000     1.464400     3
  CG25C2   CG2DC2    CG2O3    OG2D2     9   180.000000     5.690240     2
  CG25C2   CG2DC2   CG2R52   CG2R51     9   180.000000     0.209200     1
  CG25C2   CG2DC2   CG2R52   CG2R51     9   180.000000     3.221680     2
  CG25C2   CG2DC2   CG2R52   CG2R51     9     0.000000     1.799120     4
  CG25C2   CG2DC2   CG2R52   NG2R50     9     0.000000     0.167360     1
  CG25C2   CG2DC2   CG2R52   NG2R50     9   180.000000    12.008080     2
  CG25C2   CG2DC2   CG2R52   NG2R50     9   180.000000     2.552240     4
  CG25C2   CG2R52    CG331     HGA3     9     0.000000     0.000000     3
  CG25C2   CG2R52   NG2R50   OG3C51     9   180.000000    10.167120     2
  CG25C2   CG2R53   NG2R51   CG2RC0     9   180.000000     8.368000     2
  CG25C2   CG2R53   NG2R51     HGP1     9   180.000000     1.255200     2
  CG25C2   CG2R53   NG2R53   CG2R53     9   180.000000     6.276000     2
  CG25C2   CG2R53   NG2R53    CG331     9     0.000000     6.694400     1
  CG25C2   CG2R53   NG2R53    CG331     9   180.000000    10.460000     2
  CG25C2   CG2R53   OG3C51   CG3RC1     9   180.000000     2.050160     2
  CG25C2   CG2R53   OG3C51   CG3RC1     9   180.000000     0.627600     3
  CG25C2   CG2RC0   CG2RC0   CG2R61     9   180.000000     6.276000     2
  CG25C2   CG2RC0   CG2RC0   CG2RC0     9     0.000000     0.083680     2
  CG25C2   CG2RC0   CG2RC0   NG2R51     9   180.000000     4.184000     2
  CG25C2   CG3C50   OG3C51   NG2R50     9   180.000000     0.292880     1
  CG25C2   CG3C50   OG3C51   NG2R50     9     0.000000     0.000000     2
  CG25C2   CG3C50   OG3C51   NG2R50     9     0.000000     1.087840     6
  CG25C2   CG3C52   CG3C52   CG3C52     9   180.000000    15.480800     3
  CG25C2   CG3C52   CG3C52   CG3C52     9     0.000000     9.414000     4
  CG25C2   CG3C52   CG3C52   CG3C52     9   180.000000     0.962320     6
  CG25C2   CG3C52   CG3C52     HGA2     9     0.000000     0.585760     3
  CG25C2   CG3RC1   CG3RC1    CG321     9   180.000000     2.677760     3
  CG25C2   CG3RC1   CG3RC1    CG321     9     0.000000     0.041840     6
  CG25C2   CG3RC1   CG3RC1   OG3C51     9     0.000000     1.631760     3
  CG25C2   CG3RC1   CG3RC1   OG3C51     9   180.000000     2.050160     6
  CG25C2   CG3RC1   CG3RC1     HGA1     9     0.000000     0.000000     3
  CG25C2    NG2D1    OG301    CG331     9   180.000000    16.652320     1
  CG25C2    NG2D1    OG301    CG331     9   180.000000    21.003680     2
  CG2D2O   CG252O   CG2R53   NG2R53     9   180.000000     0.836800     2
  CG2D2O   CG252O   CG2R53    OG2D1     9   180.000000     3.347200     2
  CG2D2O   CG252O    SG311   CG2R53     9     0.000000     0.836800     3
  CG2D2O   CG25C2   CG2R53   NG2R51     9   180.000000     0.418400     2
  CG2D2O   CG25C2   CG2R53   NG2R53     9   180.000000     4.978960     2
  CG2D2O   CG25C2   CG2R53    OG2D1     9   180.000000     4.184000     2
  CG2D2O   CG25C2   CG2R53   OG3C51     9   180.000000     1.338880     2
  CG2D2O   CG25C2   CG2RC0   CG2R61     9   180.000000     0.418400     2
  CG2D2O   CG25C2   CG2RC0   CG2RC0     9   180.000000     0.418400     2
  CG2D2O   CG25C2   CG3C52   CG2R53     9   180.000000     1.213360     2
  CG2D2O   CG25C2   CG3C52   CG2R53     9   180.000000     1.966480     3
  CG2D2O   CG25C2   CG3C52     HGA2     9     0.000000     0.000000     3
  CG2D2O   CG25C2   CG3RC1    CG321     9   180.000000     0.167360     3
  CG2D2O   CG25C2   CG3RC1   CG3RC1     9     0.000000     0.878640     2
  CG2D2O   CG25C2   CG3RC1   CG3RC1     9     0.000000     0.209200     3
  CG2D2O   CG25C2   CG3RC1     HGA1     9     0.000000     0.000000     3
  CG2D2O    CG2D1    CG301    CG321     9   180.000000     2.092000     1
  CG2D2O    CG2D1    CG301    CG321     9   180.000000     5.439200     3
  CG2D2O    CG2D1    CG301    CG331     9   180.000000     2.092000     1
  CG2D2O    CG2D1    CG301    CG331     9   180.000000     5.439200     3
  CG2D2O    CG2D1    CG301    OG301     9   180.000000     4.435040     1
  CG2D2O    CG2D1    CG301    OG301     9   180.000000     5.062640     2
  CG2D2O    CG2D1    CG301    OG301     9     0.000000     5.564720     3
  CG2D2O    CG2D1    CG311    CG311     9   180.000000     2.510400     1
  CG2D2O    CG2D1    CG311    CG321     9   180.000000     2.510400     1
  CG2D2O    CG2D1    CG311     HGA1     9   180.000000     1.255200     3
  CG2D2O    CG2D1    CG321    CG2D1     9     0.000000     2.092000     2
  CG2D2O    CG2D1    CG321    CG2D1     9     0.000000     1.882800     4
  CG2D2O    CG2D1    CG321   CG2DC2     9   180.000000     0.000000     3
  CG2D2O    CG2D1    CG321    CG321     9   180.000000     0.000000     1
  CG2D2O    CG2D1    CG321    CG321     9     0.000000     0.000000     2
  CG2D2O    CG2D1    CG321    NG301     9   180.000000     6.694400     1
  CG2D2O    CG2D1    CG321    NG301     9     0.000000     1.255200     3
  CG2D2O    CG2D1    CG321     HGA2     9     0.000000     0.418400     3
  CG2D2O    CG2D1    CG331     HGA3     9   180.000000     1.255200     3
  CG2D2O   CG2D1O   CG2DC1    CG321     9   180.000000     7.573040     1
  CG2D2O   CG2D1O   CG2DC1    CG321     9   180.000000    16.066560     2
  CG2D2O   CG2D1O   CG2DC1     HGA4     9     0.000000     0.334720     2
  CG2D2O   CG2D1O   OG3R60    CG321     9   180.000000    18.995360     2
  CG2D2O   CG2D2O   CG2DC1   CG2DC1     9     0.000000     0.125520     1
  CG2D2O   CG2D2O   CG2DC1   CG2DC1     9     0.000000     0.000000     2
  CG2D2O   CG2D2O   CG2DC1   CG2DC1     9     0.000000     0.627600     3
  CG2D2O   CG2D2O   CG2DC1    NG2D1     9     0.000000     2.008320     1
  CG2D2O   CG2D2O   CG2DC1    NG2D1     9   180.000000    27.237840     2
  CG2D2O   CG2D2O   CG2DC1    NG2D1     9     0.000000     9.748720     3
  CG2D2O   CG2D2O   CG2DC1    NG2D1     9     0.000000     0.209200     4
  CG2D2O   CG2D2O   CG2DC1     HGA4     9   180.000000     7.991440     2
  CG2D2O   CG2D2O    CG2O1    NG2D1     9   180.000000     1.338880     1
  CG2D2O   CG2D2O    CG2O1    NG2D1     9   180.000000    13.095920     2
  CG2D2O   CG2D2O    CG2O1    NG2D1     9     0.000000     6.945440     3
  CG2D2O   CG2D2O    CG2O1    NG2D1     9   180.000000     0.000000     4
  CG2D2O   CG2D2O    CG2O1    SG2D1     9   180.000000    43.806480     1
  CG2D2O   CG2D2O    CG2O1    SG2D1     9     0.000000     0.711280     2
  CG2D2O   CG2D2O    CG2O1    SG2D1     9     0.000000     7.363840     3
  CG2D2O   CG2D2O    CG2O1    SG2D1     9     0.000000     1.422560     4
  CG2D2O   CG2D2O    CG2O5    CG321     9   180.000000     7.991440     2
  CG2D2O   CG2D2O    CG2O5    OG2D3     9   180.000000     0.167360     2
  CG2D2O   CG2D2O   CG2R51   CG2R51     9     0.000000     0.000000     2
  CG2D2O   CG2D2O   CG2R51   SG2R50     9   180.000000     0.543920     1
  CG2D2O   CG2D2O   CG2R51   SG2R50     9   180.000000     2.175680     2
  CG2D2O   CG2D2O   CG2R51   SG2R50     9   180.000000     0.376560     4
  CG2D2O   CG2D2O    CG321    CG321     9     0.000000     0.585760     1
  CG2D2O   CG2D2O    CG321    CG321     9   180.000000     4.978960     2
  CG2D2O   CG2D2O    CG321     HGA2     9     0.000000     0.000000     3
  CG2D2O   CG2D2O    CG331     HGA3     9     0.000000     0.000000     1
  CG2D2O   CG2D2O    CG331     HGA3     9     0.000000     0.000000     2
  CG2D2O   CG2D2O    CG331     HGA3     9     0.000000     0.000000     3
  CG2D2O   CG2D2O    NG2D1    NG2D1     9     0.000000     0.041840     2
  CG2D2O   CG2D2O    NG2D1    NG2D1     9     0.000000     5.020800     3
  CG2D2O   CG2D2O    NG2D1    NG2D1     9     0.000000     0.251040     4
  CG2D2O   CG2D2O    NG2D1    NG2D1     9     0.000000     7.614880     6
  CG2D2O   CG2D2O    NG2O1    OG2N1     9   180.000000     0.209200     2
  CG2D2O   CG2D2O    NG301    CG311     9     0.000000     1.840960     2
  CG2D2O   CG2D2O    NG301    CG311     9     0.000000     0.669440     3
  CG2D2O   CG2D2O    NG301    CG321     9   180.000000     2.677760     2
  CG2D2O   CG2D2O    NG301    CG321     9   180.000000     0.585760     4
  CG2D2O   CG2D2O    NG301    CG331     9   180.000000     4.225840     2
  CG2D2O   CG2D2O    NG301    CG331     9     0.000000     1.046000     4
  CG2D2O   CG2D2O    NG301    OG311     9     0.000000     0.376560     2
  CG2D2O   CG2D2O    NG301    OG311     9   180.000000     1.882800     4
  CG2D2O   CG2D2O    NG311   CG2D2O     9   180.000000     0.418400     2
  CG2D2O   CG2D2O    NG311   CG2R61     9   180.000000     4.560560     2
  CG2D2O   CG2D2O    NG311    CG311     9   180.000000     4.853440     2
  CG2D2O   CG2D2O    NG311    CG321     9     0.000000     0.000000     1
  CG2D2O   CG2D2O    NG311    CG321     9   180.000000    14.644000     2
  CG2D2O   CG2D2O    NG311    CG321     9     0.000000     3.514560     3
  CG2D2O   CG2D2O    NG311    SG3O2     9   180.000000     2.133840     2
  CG2D2O   CG2D2O    NG311    SG3O2     9   180.000000     2.510400     3
  CG2D2O   CG2D2O    NG311     HGP1     9   180.000000     0.418400     2
  CG2D2O   CG2D2O    NG311   HGPAM1     9   180.000000    11.087600     2
  CG2D2O   CG2D2O    NG321   HGPAM2     9     0.000000     7.112800     1
  CG2D2O   CG2D2O    NG321   HGPAM2     9   180.000000    12.803040     2
  CG2D2O   CG2D2O    NG321   HGPAM2     9   180.000000     0.962320     3
  CG2D2O   CG2D2O    NG321   HGPAM2     9     0.000000     0.502080     4
  CG2D2O   CG2D2O    SG311   CG2R61     9   180.000000     3.263520     1
  CG2D2O   CG2D2O    SG311   CG2R61     9     0.000000     0.292880     2
  CG2D2O   CG2DC1   CG2DC1    CG321     9   180.000000     2.343040     1
  CG2D2O   CG2DC1   CG2DC1    CG321     9   180.000000    29.288000     2
  CG2D2O   CG2DC1   CG2DC1     HGA4     9   180.000000    21.756800     2
  CG2D2O   CG2DC1    NG2D1    CG311     9   180.000000    21.338400     2
  CG2D2O   CG2DC2    CG2N2    NG2P1     9     0.000000     2.468560     1
  CG2D2O   CG2DC2    CG2N2    NG2P1     9   180.000000     7.531200     2
  CG2D2O   CG2DC2    CG2O1    NG2D1     9     0.000000    25.234959     2
  CG2D2O   CG2DC2    CG2O1    NG2S0     9   180.000000     4.602400     1
  CG2D2O   CG2DC2    CG2O1    NG2S0     9   180.000000     8.158800     2
  CG2D2O   CG2DC2    CG2O1    NG2S1     9   180.000000     4.602400     1
  CG2D2O   CG2DC2    CG2O1    NG2S1     9   180.000000     8.158800     2
  CG2D2O   CG2DC2    CG2O1    NG2S2     9   180.000000     4.602400     1
  CG2D2O   CG2DC2    CG2O1    NG2S2     9   180.000000     8.158800     2
  CG2D2O   CG2DC2    CG2O1    OG2D1     9     0.000000     1.255200     1
  CG2D2O   CG2DC2    CG2O1    OG2D1     9   180.000000     8.158800     2
  CG2D2O   CG2DC2    CG2O2    OG2D1     9   180.000000    28.567097     2
  CG2D2O   CG2DC2    CG2O2    OG311     9   180.000000     4.784822     2
  CG2D2O   CG2DC2    CG2O3    OG2D2     9   180.000000     5.439200     2
  CG2D2O   CG2DC2    CG2O5   CG2DC2     9   180.000000    13.744440     2
  CG2D2O   CG2DC2    CG2O5   CG2R61     9     0.000000     3.054320     2
  CG2D2O   CG2DC2    CG2O5    CG321     9   180.000000     5.857600     2
  CG2D2O   CG2DC2    CG2O5    CG331     9   180.000000     5.857600     2
  CG2D2O   CG2DC2    CG2O5    OG2D3     9   180.000000     5.857600     2
  CG2D2O   CG2DC2   CG2R61   CG2R61     9   180.000000     3.138000     2
  CG2D2O   CG2DC2   CG2R61   CG2R61     9     0.000000     0.794960     4
  CG2D2O   CG2DC2   CG2RC0   CG2RC0     9   180.000000     3.138000     2
  CG2D2O   CG2DC2   CG2RC0   CG2RC0     9     0.000000     0.794960     4
  CG2D2O   CG2DC2   CG2RC0    NG2D1     9   180.000000     3.138000     2
  CG2D2O   CG2DC2   CG2RC0    NG2D1     9     0.000000     0.794960     4
  CG2D2O   CG2DC2    CG311    CG321     9     0.000000     2.092000     2
  CG2D2O   CG2DC2    CG311    CG321     9     0.000000     1.255200     3
  CG2D2O   CG2DC2    CG311     HGA1     9   180.000000     0.000000     3
  CG2D2O   CG2DC2    CG321    CG2D1     9   180.000000     0.000000     3
  CG2D2O   CG2DC2    CG321    CG311     9     0.000000     2.092000     2
  CG2D2O   CG2DC2    CG321    CG311     9     0.000000     1.255200     3
  CG2D2O   CG2DC2    CG321    CG321     9     0.000000     2.092000     2
  CG2D2O   CG2DC2    CG321    CG321     9     0.000000     1.255200     3
  CG2D2O   CG2DC2    CG321    SG311     9   180.000000     4.895280     2
  CG2D2O   CG2DC2    CG321    SG311     9     0.000000     1.631760     3
  CG2D2O   CG2DC2    CG321     HGA2     9   180.000000     0.000000     3
  CG2D2O   CG2DC2    CG324   NG2R52     9     0.000000     1.046000     2
  CG2D2O   CG2DC2    CG324   NG2R52     9     0.000000     0.251040     3
  CG2D2O   CG2DC2    CG324     HGA2     9   180.000000     0.000000     3
  CG2D2O   CG2DC2    CG331     HGA3     9   180.000000     1.255200     3
  CG2D2O    CG2O1    NG2D1    NG2D1     9   180.000000    12.091760     2
  CG2D2O    CG2O1    NG2S1    CG331     9     0.000000     6.694400     1
  CG2D2O    CG2O1    NG2S1    CG331     9   180.000000    10.460000     2
  CG2D2O    CG2O1    NG2S1     HGP1     9   180.000000    10.460000     2
  CG2D2O    CG2O5   CG2R61   CG2R61     9     0.000000     0.167360     2
  CG2D2O    CG2O5    CG321    CG321     9   180.000000     2.092000     1
  CG2D2O    CG2O5    CG321    CG321     9   180.000000     4.727920     2
  CG2D2O    CG2O5    CG321    CG321     9     0.000000     0.585760     3
  CG2D2O    CG2O5    CG321    CG321     9   180.000000     0.376560     6
  CG2D2O    CG2O5    CG321     HGA2     9     0.000000     0.418400     3
  CG2D2O   CG2R51   CG2R51   CG2R51     9   180.000000     0.000000     2
  CG2D2O   CG2R51   CG2R51    SG3O2     9     0.000000     0.000000     2
  CG2D2O   CG2R51   SG2R50   CG2R51     9   180.000000     2.008320     2
  CG2D2O   CG2R61   CG2R61   CG2DC2     9     0.000000     1.882800     2
  CG2D2O   CG2R61   CG2R61    CG2O5     9     0.000000     0.292880     2
  CG2D2O   CG2R61   CG2R61   CG2R61     9   180.000000    12.970400     2
  CG2D2O   CG2R61   CG2R61    CG321     9   180.000000    11.338640     2
  CG2D2O   CG2R61   CG2R61   CG3C31     9     0.000000     1.673600     2
  CG2D2O   CG2R61   CG2R61   NG2R60     9   180.000000    12.259120     2
  CG2D2O   CG2R61   CG2R61    HGR61     9   180.000000    10.041600     2
  CG2D2O   CG2R61   CG2R61    HGR62     9   180.000000    10.041600     2
  CG2D2O   CG2R61   NG2R61   CG2R61     9   180.000000     6.066800     2
  CG2D2O   CG2R61   NG2R61     HGP1     9   180.000000     3.305360     2
  CG2D2O   CG2R61   OG3R60   CG2R61     9   180.000000     8.911920     2
  CG2D2O    CG311    CG331     HGA3     9     0.000000     0.669440     3
  CG2D2O    CG314    CG321    CG321     9   180.000000     0.585760     1
  CG2D2O    CG314    CG321    CG321     9     0.000000     0.711280     2
  CG2D2O    CG314    CG321    CG321     9   180.000000     0.209200     3
  CG2D2O    CG314    CG321     HGA2     9     0.000000     0.836800     3
  CG2D2O    CG314    NG3P1    CG324     9     0.000000    14.141920     1
  CG2D2O    CG314    NG3P1    CG324     9     0.000000     7.949600     3
  CG2D2O    CG314    NG3P1    CG334     9   180.000000    12.175440     1
  CG2D2O    CG314    NG3P1    CG334     9     0.000000     0.167360     2
  CG2D2O    CG314    NG3P1    CG334     9     0.000000     1.673600     3
  CG2D2O    CG314    NG3P1     HGP2     9   180.000000     0.334720     3
  CG2D2O    CG321    CG321    CG311     9   180.000000     0.585760     1
  CG2D2O    CG321    CG321    CG311     9     0.000000     0.711280     2
  CG2D2O    CG321    CG321    CG311     9   180.000000     0.209200     3
  CG2D2O    CG321    CG321    CG321     9   180.000000     0.585760     1
  CG2D2O    CG321    CG321    CG321     9     0.000000     0.711280     2
  CG2D2O    CG321    CG321    CG321     9   180.000000     0.209200     3
  CG2D2O    CG321    CG321    NG301     9   180.000000     1.213360     3
  CG2D2O    CG321    CG321    NG301     9   180.000000     4.769760     4
  CG2D2O    CG321    CG321     HGA2     9     0.000000     0.836800     3
  CG2D2O    NG2D1    NG2D1    CG311     9   180.000000    22.844640     2
  CG2D2O    NG2D1    NG2D1    CG311     9   180.000000     2.594080     3
  CG2D2O    NG2D1    NG2D1    CG311     9     0.000000     0.711280     4
  CG2D2O    NG2D1    NG2D1    CG321     9   180.000000    35.020080     2
  CG2D2O    NG301    OG311     HGP1     9   180.000000     2.761440     3
  CG2D2O    NG301    OG311     HGP1     9   180.000000     0.376560     4
  CG2D2O    NG301    OG311     HGP1     9     0.000000     0.878640     6
  CG2D2O    NG311    SG3O2   CG2R51     9   180.000000     2.677760     1
  CG2D2O    NG311    SG3O2   CG2R51     9   180.000000     3.598240     2
  CG2D2O    NG311    SG3O2   CG2R51     9     0.000000     3.012480     3
  CG2D2O    NG311    SG3O2    OG2P1     9     0.000000     8.493520     3
  CG2DC2   CG252O   CG2R53   NG2R51     9   180.000000     0.418400     2
  CG2DC2   CG252O   CG2R53   NG2R53     9   180.000000     0.836800     2
  CG2DC2   CG252O   CG2R53    OG2D1     9   180.000000     3.347200     2
  CG2DC2   CG252O   NG2R50   CG2R53     9   180.000000     7.447520     2
  CG2DC2   CG252O   NG2R53   CG2R53     9   180.000000     4.184000     2
  CG2DC2   CG252O   NG2R53     HGP1     9   180.000000     1.673600     2
  CG2DC2   CG252O   OG3C51   CG2R53     9   180.000000     7.991440     2
  CG2DC2   CG252O   OG3C51   CG2R53     9   180.000000     1.506240     3
  CG2DC2   CG252O    SG311   CG2R53     9     0.000000     0.836800     3
  CG2DC2   CG25C2   CG2R53   NG2R51     9   180.000000     0.418400     2
  CG2DC2   CG25C2   CG2R53    OG2D1     9   180.000000     4.184000     2
  CG2DC2   CG25C2   CG2RC0   CG2R61     9   180.000000     0.418400     2
  CG2DC2   CG25C2   CG2RC0   CG2RC0     9   180.000000     0.418400     2
  CG2DC2   CG25C2   CG3C52   CG2RC0     9     0.000000     0.083680     2
  CG2DC2   CG25C2   CG3C52   CG2RC0     9   180.000000     1.631760     3
  CG2DC2   CG25C2   CG3C52     HGA2     9     0.000000     0.000000     3
  CG2DC2   CG2D1O   CG2D1O    NG301     9   180.000000    10.752880     2
  CG2DC2   CG2D1O   CG2D1O    NG311     9     0.000000     1.380720     2
  CG2DC2   CG2D1O   CG2D1O     HGA4     9   180.000000    19.413760     2
  CG2DC2   CG2D1O   CG2R61   CG2R61     9   180.000000     3.640080     2
  CG2DC2   CG2D1O   CG2R61   CG2R61     9   180.000000     0.209200     4
  CG2DC2   CG2D1O   CG2R61   NG2R61     9   180.000000     4.978960     2
  CG2DC2   CG2D1O   CG2R61   NG2R61     9   180.000000     4.058480     4
  CG2DC2   CG2D1O    NG2O1    OG2N1     9   180.000000    26.233680     2
  CG2DC2   CG2D1O    NG321   HGPAM2     9     0.000000     1.129680     3
  CG2DC2   CG2D1O    OG311     HGP1     9     0.000000     2.217520     1
  CG2DC2   CG2D1O    OG311     HGP1     9     0.000000     1.087840     2
  CG2DC2   CG2D1O    OG311     HGP1     9   180.000000     1.548080     3
  CG2DC2   CG2D1O    OG311     HGP1     9     0.000000     1.966480     6
  CG2DC2   CG2D2O    CG2O1    NG2S1     9   180.000000     0.095814     1
  CG2DC2   CG2D2O    CG2O1    NG2S1     9   180.000000     7.011966     2
  CG2DC2   CG2D2O    CG2O1    NG2S1     9     0.000000     0.423421     3
  CG2DC2   CG2D2O    CG2O1    NG2S1     9     0.000000     0.498314     4
  CG2DC2   CG2D2O    CG2O1    OG2D1     9     0.000000     3.884426     1
  CG2DC2   CG2D2O    CG2O1    OG2D1     9   180.000000     9.211494     2
  CG2DC2   CG2D2O    CG2O1    OG2D1     9   180.000000     0.108784     3
  CG2DC2   CG2D2O    CG2O1    OG2D1     9     0.000000     1.703306     4
  CG2DC2   CG2D2O    CG2O3    OG2D2     9   180.000000    10.794720     2
  CG2DC2   CG2D2O    CG2O3    OG2D2     9   180.000000     1.589920     4
  CG2DC2   CG2D2O    CG2O5   CG2DC2     9   180.000000     1.738870     2
  CG2DC2   CG2D2O    CG2O5   CG2R61     9   180.000000    12.217280     2
  CG2DC2   CG2D2O    CG2O5    OG2D3     9   180.000000     0.165686     2
  CG2DC2   CG2D2O   CG2R61   CG2R61     9   180.000000     2.677760     2
  CG2DC2   CG2D2O   CG2R61   CG2R61     9   180.000000     1.380720     4
  CG2DC2   CG2D2O   CG2R61   CG2R61     9     0.000000     2.133840     6
  CG2DC2   CG2D2O    CG321    CG321     9     0.000000     8.702720     1
  CG2DC2   CG2D2O    CG321    CG321     9     0.000000     0.418400     2
  CG2DC2   CG2D2O    CG321     HGA2     9   180.000000     0.000000     3
  CG2DC2   CG2D2O    CG331     HGA3     9   180.000000     1.255200     3
  CG2DC2   CG2D2O    NG2D1   CG2DC2     9   180.000000    50.208000     2
  CG2DC2   CG2D2O    NG2D1    CG2N2     9   180.000000    23.365966     2
  CG2DC2   CG2D2O    NG2D1   CG2R64     9   180.000000     7.573040     2
  CG2DC2   CG2D2O    NG2P1   CG2R53     9   180.000000    12.552000     2
  CG2DC2   CG2D2O    NG2P1     HGP2     9   180.000000     7.238320     2
  CG2DC2   CG2D2O   NG2R43   CG2R53     9   180.000000     0.585760     1
  CG2DC2   CG2D2O   NG2R43   CG2R53     9   180.000000     4.895280     2
  CG2DC2   CG2D2O   NG2R43   CG2R53     9     0.000000     1.631760     4
  CG2DC2   CG2D2O   NG2R43   CG3RC1     9     0.000000     1.799120     1
  CG2DC2   CG2D2O   NG2R43   CG3RC1     9   180.000000     5.857600     2
  CG2DC2   CG2D2O    NG2S0    CG2O1     9     0.000000    32.049440     1
  CG2DC2   CG2D2O    NG2S0    CG2O1     9   180.000000    10.334480     2
  CG2DC2   CG2D2O    NG2S0    CG311     9   180.000000    11.506000     1
  CG2DC2   CG2D2O    NG2S0    CG311     9     0.000000     0.460240     2
  CG2DC2   CG2D2O    NG2S1    CG2O1     9   180.000000    17.502927     1
  CG2DC2   CG2D2O    NG2S1    CG2O1     9   180.000000     9.839931     2
  CG2DC2   CG2D2O    NG2S1     HGP1     9   180.000000    11.148268     2
  CG2DC2   CG2D2O    NG301   CG2D2O     9   180.000000     2.092000     2
  CG2DC2   CG2D2O    NG301    CG321     9   180.000000     4.518720     2
  CG2DC2   CG2D2O    NG301    CG331     9     0.000000     1.129680     2
  CG2DC2   CG2D2O    NG301   CG3C51     9   180.000000     0.418400     2
  CG2DC2   CG2D2O    NG311   CG2D2O     9   180.000000     2.092000     2
  CG2DC2   CG2D2O    NG311    CG311     9   180.000000    13.263280     2
  CG2DC2   CG2D2O    NG311    CG321     9   180.000000     8.200640     2
  CG2DC2   CG2D2O    NG311   HGPAM1     9   180.000000     0.418400     2
  CG2DC2   CG2D2O    NG321   HGPAM2     9     0.000000     7.112800     1
  CG2DC2   CG2D2O    NG321   HGPAM2     9   180.000000    12.803040     2
  CG2DC2   CG2D2O    NG321   HGPAM2     9   180.000000     0.962320     3
  CG2DC2   CG2D2O    NG321   HGPAM2     9     0.000000     0.502080     4
  CG2DC2   CG2D2O    OG301    CG331     9   180.000000     3.347200     1
  CG2DC2   CG2D2O    OG301    CG331     9   180.000000    12.552000     2
  CG2DC2   CG2D2O    OG301    CG331     9   180.000000     4.602400     3
  CG2DC2   CG2D2O    OG311     HGP1     9   180.000000     2.704119     1
  CG2DC2   CG2D2O    OG311     HGP1     9   180.000000    14.275808     2
  CG2DC2   CG2D2O    OG311     HGP1     9   180.000000     0.000418     3
  CG2DC2   CG2D2O   OG3R60    CG311     9     0.000000     8.368000     2
  CG2DC2   CG2D2O   OG3R60    CG321     9     0.000000     8.368000     2
  CG2DC2   CG2D2O    SG311    CG311     9   180.000000     0.000000     1
  CG2DC2   CG2D2O    SG311    CG311     9     0.000000     0.000000     2
  CG2DC2   CG2DC1   CG2DC1   CG2DC2     9   180.000000     2.343040     1
  CG2DC2   CG2DC1   CG2DC1   CG2DC2     9   180.000000    29.288000     2
  CG2DC2   CG2DC1   CG2DC1    CG2O1     9   180.000000     2.343040     1
  CG2DC2   CG2DC1   CG2DC1    CG2O1     9   180.000000    29.288000     2
  CG2DC2   CG2DC1   CG2DC1    CG2O3     9   180.000000     2.343040     1
  CG2DC2   CG2DC1   CG2DC1    CG2O3     9   180.000000    29.288000     2
  CG2DC2   CG2DC1   CG2DC1    CG2O4     9   180.000000     2.343040     1
  CG2DC2   CG2DC1   CG2DC1    CG2O4     9   180.000000    29.288000     2
  CG2DC2   CG2DC1   CG2DC1    CG2O5     9   180.000000     2.343040     1
  CG2DC2   CG2DC1   CG2DC1    CG2O5     9   180.000000    29.288000     2
  CG2DC2   CG2DC1   CG2DC1   CG2R51     9   180.000000     2.612071     1
  CG2DC2   CG2DC1   CG2DC1   CG2R51     9   180.000000    29.050349     2
  CG2DC2   CG2DC1   CG2DC1   CG2R52     9   180.000000     2.594080     1
  CG2DC2   CG2DC1   CG2DC1   CG2R52     9   180.000000    29.036960     2
  CG2DC2   CG2DC1   CG2DC1    CG301     9   180.000000     2.343040     1
  CG2DC2   CG2DC1   CG2DC1    CG301     9   180.000000    29.288000     2
  CG2DC2   CG2DC1   CG2DC1    CG311     9   180.000000     2.343040     1
  CG2DC2   CG2DC1   CG2DC1    CG311     9   180.000000    29.288000     2
  CG2DC2   CG2DC1   CG2DC1    CG321     9   180.000000     2.343040     1
  CG2DC2   CG2DC1   CG2DC1    CG321     9   180.000000    29.288000     2
  CG2DC2   CG2DC1   CG2DC1    CG331     9   180.000000     2.343040     1
  CG2DC2   CG2DC1   CG2DC1    CG331     9   180.000000    29.288000     2
  CG2DC2   CG2DC1   CG2DC1   CG3RC1     9   180.000000     0.000000     1
  CG2DC2   CG2DC1   CG2DC1   CG3RC1     9   180.000000    12.886720     2
  CG2DC2   CG2DC1   CG2DC1     HGA4     9   180.000000    21.756800     2
  CG2DC2   CG2DC1   CG2DC2   CG2DC2     9   180.000000     2.092000     1
  CG2DC2   CG2DC1   CG2DC2   CG2DC2     9     0.000000     8.368000     2
  CG2DC2   CG2DC1   CG2DC2   CG2DC2     9     0.000000     4.184000     3
  CG2DC2   CG2DC1   CG2DC2     HGA4     9   180.000000     7.326602     2
  CG2DC2   CG2DC1   CG2DC3     HGA5     9   180.000000    20.920000     2
  CG2DC2   CG2DC1    CG2O1    NG2S1     9   180.000000     0.167360     1
  CG2DC2   CG2DC1    CG2O1    NG2S1     9   180.000000    13.974560     2
  CG2DC2   CG2DC1    CG2O1    NG2S1     9     0.000000     2.384880     3
  CG2DC2   CG2DC1    CG2O1    NG2S1     9     0.000000     2.217520     4
  CG2DC2   CG2DC1    CG2O1    OG2D1     9     0.000000     2.803280     1
  CG2DC2   CG2DC1    CG2O1    OG2D1     9   180.000000    14.936880     2
  CG2DC2   CG2DC1    CG2O1    OG2D1     9   180.000000     6.987280     3
  CG2DC2   CG2DC1    CG2O1    OG2D1     9   180.000000     4.727920     4
  CG2DC2   CG2DC1    CG2O3    OG2D2     9     0.000000     0.794960     2
  CG2DC2   CG2DC1    CG2O5   CG2DC1     9   180.000000    28.451200     2
  CG2DC2   CG2DC1    CG2O5   CG2R51     9   180.000000     4.538385     2
  CG2DC2   CG2DC1    CG2O5    OG2D3     9   180.000000     5.857600     2
  CG2DC2   CG2DC1    CG2O5    SG3O3     9   180.000000    15.229760     2
  CG2DC2   CG2DC1    CG301    CG321     9     0.000000     1.255200     3
  CG2DC2   CG2DC1    CG301    CG331     9     0.000000     1.255200     3
  CG2DC2   CG2DC1    CG311   CG2DC1     9     0.000000     4.100320     3
  CG2DC2   CG2DC1    CG311   CG2DC1     9   180.000000     2.301200     4
  CG2DC2   CG2DC1    CG311    CG311     9     0.000000     1.255200     3
  CG2DC2   CG2DC1    CG311     HGA1     9   180.000000     0.000000     3
  CG2DC2   CG2DC1    CG321   CG2DC1     9   180.000000     0.000000     2
  CG2DC2   CG2DC1    CG321   CG2DC1     9     0.000000    11.757040     3
  CG2DC2   CG2DC1    CG321    CG2O1     9     0.000000     6.359680     3
  CG2DC2   CG2DC1    CG321     HGA2     9   180.000000     1.255200     3
  CG2DC2   CG2DC1    CG331     HGA3     9   180.000000     1.255200     3
  CG2DC2   CG2DC1    NG2D1    CG2N2     9     0.000000     0.000000     2
  CG2DC2   CG2DC1    NG2D1    CG311     9   180.000000     5.062640     2
  CG2DC2   CG2DC1    NG2D1     HGP1     9   180.000000    49.867422     2
  CG2DC2   CG2DC1    NG2P1    CG334     9   180.000000    29.288000     2
  CG2DC2   CG2DC1    NG2P1     HGP2     9   180.000000    20.920000     2
  CG2DC2   CG2DC2    CG2O1    NG2S0     9     0.000000     2.928800     1
  CG2DC2   CG2DC2    CG2O1    NG2S0     9   180.000000     5.020800     2
  CG2DC2   CG2DC2    CG2O1    NG2S0     9     0.000000     0.418400     3
  CG2DC2   CG2DC2    CG2O1    NG2S0     9     0.000000     0.627600     4
  CG2DC2   CG2DC2    CG2O1    NG2S1     9     0.000000     2.928800     1
  CG2DC2   CG2DC2    CG2O1    NG2S1     9   180.000000     5.020800     2
  CG2DC2   CG2DC2    CG2O1    NG2S1     9     0.000000     0.418400     3
  CG2DC2   CG2DC2    CG2O1    NG2S1     9     0.000000     0.627600     4
  CG2DC2   CG2DC2    CG2O1    OG2D1     9   180.000000     2.928800     1
  CG2DC2   CG2DC2    CG2O1    OG2D1     9   180.000000     5.020800     2
  CG2DC2   CG2DC2    CG2O1    OG2D1     9   180.000000     0.418400     3
  CG2DC2   CG2DC2    CG2O1    OG2D1     9     0.000000     0.836800     4
  CG2DC2   CG2DC2    CG2O2    OG2D1     9   180.000000    28.576720     2
  CG2DC2   CG2DC2    CG2O2    OG302     9     0.000000    17.489120     2
  CG2DC2   CG2DC2    CG2O2    OG311     9   180.000000     4.769760     2
  CG2DC2   CG2DC2    CG2O3    OG2D2     9   180.000000     5.439200     2
  CG2DC2   CG2DC2    CG2O4    OG2D1     9   180.000000     4.184000     2
  CG2DC2   CG2DC2    CG2O4    HGR52     9   180.000000    13.388800     2
  CG2DC2   CG2DC2    CG2O5   CG2D2O     9   180.000000     0.841402     2
  CG2DC2   CG2DC2    CG2O5   CG2DC2     9   180.000000     4.229606     2
  CG2DC2   CG2DC2    CG2O5    CG2O5     9   180.000000     0.052300     2
  CG2DC2   CG2DC2    CG2O5    CG311     9   180.000000     5.857600     2
  CG2DC2   CG2DC2    CG2O5    CG321     9   180.000000     5.857600     2
  CG2DC2   CG2DC2    CG2O5    OG2D3     9   180.000000     5.857600     2
  CG2DC2   CG2DC2    CG2O5    SG2D1     9     0.000000     0.000000     2
  CG2DC2   CG2DC2    CG2O5    SG3O3     9   180.000000    25.355040     2
  CG2DC2   CG2DC2   CG2R51   CG2R51     9   180.000000     3.179840     2
  CG2DC2   CG2DC2   CG2R51   CG2R52     9   180.000000     3.179840     2
  CG2DC2   CG2DC2   CG2R51   NG2R50     9   180.000000     8.330762     1
  CG2DC2   CG2DC2   CG2R51   NG2R50     9   180.000000     5.547566     2
  CG2DC2   CG2DC2   CG2R51   NG2R50     9     0.000000     0.437646     4
  CG2DC2   CG2DC2   CG2R51   NG2R51     9   180.000000     5.606560     1
  CG2DC2   CG2DC2   CG2R51   NG2R51     9   180.000000     1.255200     2
  CG2DC2   CG2DC2   CG2R51   NG2R51     9   180.000000     0.460240     4
  CG2DC2   CG2DC2   CG2R52   CG2R52     9   180.000000     3.179840     2
  CG2DC2   CG2DC2   CG2R52   NG2R50     9   180.000000     8.326160     1
  CG2DC2   CG2DC2   CG2R52   NG2R50     9   180.000000     5.564720     2
  CG2DC2   CG2DC2   CG2R52   NG2R50     9     0.000000     0.418400     4
  CG2DC2   CG2DC2   CG2R53   NG2R50     9   180.000000     3.096160     1
  CG2DC2   CG2DC2   CG2R53   NG2R50     9     0.000000     0.000000     2
  CG2DC2   CG2DC2   CG2R53   NG2R50     9   180.000000     0.962320     4
  CG2DC2   CG2DC2   CG2R53   NG2R52     9   180.000000     6.861760     1
  CG2DC2   CG2DC2   CG2R53   NG2R52     9   180.000000     1.840960     2
  CG2DC2   CG2DC2   CG2R53   NG2R52     9   180.000000     0.209200     4
  CG2DC2   CG2DC2   CG2R53   SG2R50     9     0.000000     0.627600     1
  CG2DC2   CG2DC2   CG2R53   SG2R50     9   180.000000    11.380480     2
  CG2DC2   CG2DC2   CG2R53   SG2R50     9     0.000000     0.920480     4
  CG2DC2   CG2DC2   CG2R61   CG2R61     9   180.000000     3.138000     2
  CG2DC2   CG2DC2   CG2R61   CG2R61     9     0.000000     0.794960     4
  CG2DC2   CG2DC2   CG2R61   CG2R66     9   180.000000     3.138000     2
  CG2DC2   CG2DC2   CG2R61   CG2R66     9     0.000000     0.794960     4
  CG2DC2   CG2DC2   CG2R61   NG2R60     9   180.000000     1.715440     2
  CG2DC2   CG2DC2   CG2R61   NG2R60     9   180.000000     4.393200     3
  CG2DC2   CG2DC2   CG2R61   NG2R60     9     0.000000     3.807440     4
  CG2DC2   CG2DC2   CG2R61   NG2RC0     9   180.000000     1.380720     2
  CG2DC2   CG2DC2   CG2R61   NG2RC0     9     0.000000     2.635920     4
  CG2DC2   CG2DC2   CG2R61   NG2RC0     9     0.000000     0.669440     6
  CG2DC2   CG2DC2   CG2R62   CG2R62     9   180.000000     3.138000     2
  CG2DC2   CG2DC2   CG2R62   CG2R62     9     0.000000     0.794960     4
  CG2DC2   CG2DC2   CG2R62   CG2R63     9   180.000000     3.138000     2
  CG2DC2   CG2DC2   CG2R62   CG2R63     9     0.000000     0.794960     4
  CG2DC2   CG2DC2   CG2R62   NG2R61     9   180.000000     7.322000     2
  CG2DC2   CG2DC2   CG2R62   NG2R61     9     0.000000     1.882800     4
  CG2DC2   CG2DC2   CG2R62   NG2R61     9     0.000000     3.556400     6
  CG2DC2   CG2DC2   CG2R64   NG2R62     9   180.000000     5.606560     2
  CG2DC2   CG2DC2   CG2R64   NG2R62     9     0.000000     0.543920     4
  CG2DC2   CG2DC2    CG301    CG1N1     9   180.000000    10.501840     2
  CG2DC2   CG2DC2    CG301    CG1N1     9   180.000000     0.000000     3
  CG2DC2   CG2DC2    CG301    CG301     9     0.000000     2.092000     2
  CG2DC2   CG2DC2    CG301    CG301     9     0.000000     1.255200     3
  CG2DC2   CG2DC2    CG301    CG311     9     0.000000     2.092000     2
  CG2DC2   CG2DC2    CG301    CG311     9     0.000000     1.255200     3
  CG2DC2   CG2DC2    CG301    CG321     9     0.000000     2.092000     2
  CG2DC2   CG2DC2    CG301    CG321     9     0.000000     1.255200     3
  CG2DC2   CG2DC2    CG301    CG331     9     0.000000     2.092000     2
  CG2DC2   CG2DC2    CG301    CG331     9     0.000000     1.673600     3
  CG2DC2   CG2DC2    CG301    NG311     9     0.000000     0.000000     2
  CG2DC2   CG2DC2    CG301    NG311     9   180.000000     0.376560     3
  CG2DC2   CG2DC2    CG301   OG3C61     9   180.000000     2.008320     3
  CG2DC2   CG2DC2    CG301   OG3C61     9     0.000000     2.594080     4
  CG2DC2   CG2DC2    CG311    CG2D1     9   180.000000     0.000000     3
  CG2DC2   CG2DC2    CG311   CG2DC2     9   180.000000     0.000000     3
  CG2DC2   CG2DC2    CG311    CG2O1     9     0.000000     0.669440     2
  CG2DC2   CG2DC2    CG311    CG2O1     9   180.000000    11.798880     3
  CG2DC2   CG2DC2    CG311    CG2O2     9   180.000000    24.852960     3
  CG2DC2   CG2DC2    CG311    CG2O2     9   180.000000     4.351360     6
  CG2DC2   CG2DC2    CG311    CG2O3     9   180.000000    34.727200     3
  CG2DC2   CG2DC2    CG311    CG2O3     9   180.000000     9.414000     4
  CG2DC2   CG2DC2    CG311    CG311     9     0.000000     2.092000     2
  CG2DC2   CG2DC2    CG311    CG311     9     0.000000     1.255200     3
  CG2DC2   CG2DC2    CG311    CG321     9     0.000000     2.092000     2
  CG2DC2   CG2DC2    CG311    CG321     9     0.000000     1.255200     3
  CG2DC2   CG2DC2    CG311    CG331     9     0.000000     2.092000     2
  CG2DC2   CG2DC2    CG311    CG331     9     0.000000     1.255200     3
  CG2DC2   CG2DC2    CG311   CG3RC1     9   180.000000     3.681920     2
  CG2DC2   CG2DC2    CG311   CG3RC1     9     0.000000     3.263520     3
  CG2DC2   CG2DC2    CG311   CG3RC1     9   180.000000     0.585760     6
  CG2DC2   CG2DC2    CG311    NG2S0     9   180.000000     2.008320     2
  CG2DC2   CG2DC2    CG311    NG2S0     9     0.000000     7.196480     3
  CG2DC2   CG2DC2    CG311    NG2S1     9     0.000000     0.711280     2
  CG2DC2   CG2DC2    CG311    NG2S1     9   180.000000     9.497680     3
  CG2DC2   CG2DC2    CG311    NG301     9     0.000000     0.000000     2
  CG2DC2   CG2DC2    CG311    NG301     9   180.000000     7.363840     3
  CG2DC2   CG2DC2    CG311    NG311     9     0.000000     4.267680     2
  CG2DC2   CG2DC2    CG311    NG311     9     0.000000     2.510400     3
  CG2DC2   CG2DC2    CG311    OG311     9   180.000000     7.949600     1
  CG2DC2   CG2DC2    CG311    OG311     9   180.000000     1.673600     2
  CG2DC2   CG2DC2    CG311    OG311     9   180.000000     2.510400     3
  CG2DC2   CG2DC2    CG311   OG3R60     9     0.000000     2.928800     3
  CG2DC2   CG2DC2    CG311     HGA1     9     0.000000     0.125520     3
  CG2DC2   CG2DC2    CG321   CG2DC2     9   180.000000     0.000000     3
  CG2DC2   CG2DC2    CG321    CG314     9     0.000000     0.251040     2
  CG2DC2   CG2DC2    CG321    CG314     9   180.000000    10.878400     3
  CG2DC2   CG2DC2    CG321    CG321     9     0.000000     2.092000     2
  CG2DC2   CG2DC2    CG321    CG321     9     0.000000     1.255200     3
  CG2DC2   CG2DC2    CG321    CG324     9     0.000000     0.794960     2
  CG2DC2   CG2DC2    CG321    CG324     9   180.000000     3.932960     3
  CG2DC2   CG2DC2    CG321    CG331     9     0.000000     2.092000     2
  CG2DC2   CG2DC2    CG321    CG331     9     0.000000     1.255200     3
  CG2DC2   CG2DC2    CG321    NG301     9     0.000000     0.543920     2
  CG2DC2   CG2DC2    CG321    NG301     9     0.000000     8.242480     3
  CG2DC2   CG2DC2    CG321    NG311     9   180.000000     0.711280     2
  CG2DC2   CG2DC2    CG321    NG311     9     0.000000     0.000000     3
  CG2DC2   CG2DC2    CG321    OG311     9   180.000000     7.949600     1
  CG2DC2   CG2DC2    CG321    OG311     9   180.000000     1.673600     2
  CG2DC2   CG2DC2    CG321    OG311     9   180.000000     2.510400     3
  CG2DC2   CG2DC2    CG321   OG3C61     9     0.000000     2.928800     3
  CG2DC2   CG2DC2    CG321   OG3R60     9     0.000000     2.928800     3
  CG2DC2   CG2DC2    CG321    SG311     9   180.000000     0.711280     2
  CG2DC2   CG2DC2    CG321    SG311     9   180.000000     4.142160     3
  CG2DC2   CG2DC2    CG321    SG311     9   180.000000     3.347200     4
  CG2DC2   CG2DC2    CG321     HGA2     9     0.000000     0.125520     3
  CG2DC2   CG2DC2    CG324    NG3P2     9   180.000000    19.413760     2
  CG2DC2   CG2DC2    CG324    NG3P2     9     0.000000     1.631760     3
  CG2DC2   CG2DC2    CG324     HGA2     9     0.000000     0.125520     3
  CG2DC2   CG2DC2    CG331     HGA3     9   180.000000     1.255200     3
  CG2DC2   CG2DC2   CG3RC1   CG3RC1     9     0.000000     0.000000     2
  CG2DC2   CG2DC2   CG3RC1   CG3RC1     9     0.000000     3.096160     3
  CG2DC2   CG2DC2   CG3RC1   OG3C51     9   180.000000     1.297040     2
  CG2DC2   CG2DC2   CG3RC1   OG3C51     9     0.000000     0.962320     3
  CG2DC2   CG2DC2   CG3RC1     HGA1     9     0.000000     0.000000     3
  CG2DC2    CG2N2    NG2P1    CG324     9     0.000000     1.297040     2
  CG2DC2    CG2N2    NG2P1     HGP2     9     0.000000     1.297040     2
  CG2DC2    CG2O1    NG2D1    CG2N2     9   180.000000    27.196000     2
  CG2DC2    CG2O1    NG2S0   CG2D1O     9   180.000000    12.342800     1
  CG2DC2    CG2O1    NG2S0   CG2D1O     9   180.000000     0.836800     2
  CG2DC2    CG2O1    NG2S0    CG311     9     0.000000    16.024720     1
  CG2DC2    CG2O1    NG2S0    CG311     9   180.000000    17.363600     2
  CG2DC2    CG2O1    NG2S0    CG321     9     0.000000    12.008080     1
  CG2DC2    CG2O1    NG2S0    CG321     9   180.000000    32.802560     2
  CG2DC2    CG2O1    NG2S0    CG331     9   180.000000     7.322000     1
  CG2DC2    CG2O1    NG2S0    CG331     9     0.000000     0.585760     2
  CG2DC2    CG2O1    NG2S0   CG3C52     9     0.000000     3.849280     1
  CG2DC2    CG2O1    NG2S0   CG3C52     9   180.000000    24.183520     2
  CG2DC2    CG2O1    NG2S0   CG3RC1     9     0.000000     1.840960     1
  CG2DC2    CG2O1    NG2S0   CG3RC1     9     0.000000     0.418400     2
  CG2DC2    CG2O1    NG2S1   CG2D2O     9     0.000000     1.631760     1
  CG2DC2    CG2O1    NG2S1   CG2D2O     9   180.000000    13.807200     2
  CG2DC2    CG2O1    NG2S1    CG2O1     9     0.000000     3.347200     1
  CG2DC2    CG2O1    NG2S1    CG2O1     9     0.000000     0.000000     2
  CG2DC2    CG2O1    NG2S1   CG2R61     9     0.000000     6.694400     1
  CG2DC2    CG2O1    NG2S1   CG2R61     9   180.000000    10.460000     2
  CG2DC2    CG2O1    NG2S1    CG321     9     0.000000     6.694400     1
  CG2DC2    CG2O1    NG2S1    CG321     9   180.000000    10.460000     2
  CG2DC2    CG2O1    NG2S1    CG331     9     0.000000     6.694400     1
  CG2DC2    CG2O1    NG2S1    CG331     9   180.000000    10.460000     2
  CG2DC2    CG2O1    NG2S1     HGP1     9   180.000000    10.460000     2
  CG2DC2    CG2O1    NG2S2     HGP1     9   180.000000    10.460000     2
  CG2DC2    CG2O2    OG302    CG311     9     0.000000     0.460240     1
  CG2DC2    CG2O2    OG302    CG311     9     0.000000     0.000000     2
  CG2DC2    CG2O2    OG302    CG311     9   180.000000     0.418400     6
  CG2DC2    CG2O2    OG311     HGP1     9   180.000000     4.077308     1
  CG2DC2    CG2O2    OG311     HGP1     9   180.000000    11.276298     2
  CG2DC2    CG2O2    OG311     HGP1     9   180.000000     0.332628     3
  CG2DC2    CG2O2    OG311     HGP1     9   180.000000     0.775714     6
  CG2DC2    CG2O5    CG2O5   CG2R51     9   180.000000     0.001255     2
  CG2DC2    CG2O5    CG2O5    OG2D3     9   180.000000     0.100834     2
  CG2DC2    CG2O5   CG2R51   CG2R51     9   180.000000     0.154390     2
  CG2DC2    CG2O5   CG2R51   NG2R51     9   180.000000     6.632895     2
  CG2DC2    CG2O5   CG2R61   CG2R61     9     0.000000     0.000000     2
  CG2DC2    CG2O5   CG2R61   CG2R64     9     0.000000     2.803280     2
  CG2DC2    CG2O5    CG311   CG2R61     9     0.000000     0.000000     1
  CG2DC2    CG2O5    CG311   CG2R61     9     0.000000     0.167360     3
  CG2DC2    CG2O5    CG311   CG2R61     9     0.000000     5.397360     4
  CG2DC2    CG2O5    CG311    OG311     9     0.000000     0.000000     2
  CG2DC2    CG2O5    CG311     HGA1     9     0.000000     0.000000     3
  CG2DC2    CG2O5    CG321    CG321     9     0.000000     0.753120     1
  CG2DC2    CG2O5    CG321    CG321     9   180.000000     8.702720     2
  CG2DC2    CG2O5    CG321    CG321     9   180.000000     4.225840     3
  CG2DC2    CG2O5    CG321    CG321     9     0.000000     7.991440     4
  CG2DC2    CG2O5    CG321    CG321     9   180.000000     3.974800     6
  CG2DC2    CG2O5    CG321     HGA2     9     0.000000     0.418400     3
  CG2DC2    CG2O5    CG331     HGA3     9     0.000000     0.418400     3
  CG2DC2    CG2O5    SG3O3    CG331     9   180.000000     0.460240     2
  CG2DC2    CG2O5    SG3O3    CG331     9   180.000000     1.464400     3
  CG2DC2    CG2O5    SG3O3    NG2D1     9     0.000000     0.502080     2
  CG2DC2    CG2O5    SG3O3    NG2D1     9     0.000000     4.895280     3
  CG2DC2    CG2O5    SG3O3    OG2P1     9     0.000000     1.799120     2
  CG2DC2    CG2O5    SG3O3    OG2P1     9   180.000000     0.083680     3
  CG2DC2   CG2R51   CG2R51    CG2O5     9   180.000000     0.000000     2
  CG2DC2   CG2R51   CG2R51   CG2R51     9   180.000000     0.000000     2
  CG2DC2   CG2R51   CG2R51   CG2R52     9   180.000000     0.000000     2
  CG2DC2   CG2R51   CG2R51   CG2RC0     9   180.000000     0.000000     2
  CG2DC2   CG2R51   CG2R51    CG321     9   180.000000     0.000000     2
  CG2DC2   CG2R51   CG2R51    CG331     9   180.000000     0.000000     2
  CG2DC2   CG2R51   CG2R51   NG2R51     9   180.000000     0.013807     2
  CG2DC2   CG2R51   CG2R51   OG2R50     9   180.000000    14.644000     2
  CG2DC2   CG2R51   CG2R51    OG311     9   180.000000     8.315700     2
  CG2DC2   CG2R51   CG2R51   OG3C51     9     0.000000     1.506240     2
  CG2DC2   CG2R51   CG2R51    HGR51     9   180.000000     1.548080     2
  CG2DC2   CG2R51   CG2R51    HGR52     9   180.000000     1.564398     2
  CG2DC2   CG2R51   CG2R52   NG2R50     9     0.000000     1.380720     2
  CG2DC2   CG2R51   CG2R52    HGR52     9   180.000000     1.548080     2
  CG2DC2   CG2R51   CG2RC0   CG2R61     9   180.000000     0.023849     2
  CG2DC2   CG2R51   CG2RC0   CG2RC0     9   180.000000     5.122890     2
  CG2DC2   CG2R51   NG2R50   CG2R53     9   180.000000     3.792796     2
  CG2DC2   CG2R51   NG2R51   CG2RC0     9     0.000000     2.050160     2
  CG2DC2   CG2R51   NG2R51    CG331     9     0.000000     1.046000     2
  CG2DC2   CG2R51   NG2R51   NG2R50     9   180.000000     8.200640     2
  CG2DC2   CG2R51   NG2R51     HGP1     9     0.000000     3.514560     2
  CG2DC2   CG2R51   OG3C51   CG3C52     9   180.000000    25.815280     2
  CG2DC2   CG2R52   CG2R52   NG2R50     9     0.000000     2.970640     2
  CG2DC2   CG2R52   NG2R50   CG2R53     9   180.000000     3.807440     2
  CG2DC2   CG2R52   NG2R50   NG2R51     9     0.000000     0.000000     2
  CG2DC2   CG2R53   NG2R50   CG252O     9   180.000000     0.307106     2
  CG2DC2   CG2R53   NG2R50   CG2RC0     9   180.000000     0.292880     2
  CG2DC2   CG2R53   NG2R51   CG2R53     9   180.000000     1.124659     2
  CG2DC2   CG2R53   NG2R51    CG321     9   180.000000     0.263174     2
  CG2DC2   CG2R53   NG2R51    CG331     9   180.000000     0.263174     2
  CG2DC2   CG2R53   NG2R52   CG2RC0     9   180.000000     8.326160     2
  CG2DC2   CG2R53   NG2R52    CG334     9     0.000000     0.543920     2
  CG2DC2   CG2R53   SG2R50   CG2RC0     9   180.000000    26.735760     2
  CG2DC2   CG2R61   CG2R61   CG2DC2     9   180.000000     7.447520     2
  CG2DC2   CG2R61   CG2R61    CG2O5     9     0.000000     1.464400     2
  CG2DC2   CG2R61   CG2R61   CG2R61     9   180.000000    12.970400     2
  CG2DC2   CG2R61   CG2R61    CG311     9   180.000000    11.338640     2
  CG2DC2   CG2R61   CG2R61    CG321     9   180.000000    11.319394     2
  CG2DC2   CG2R61   CG2R61    CG331     9   180.000000    11.319394     2
  CG2DC2   CG2R61   CG2R61   NG2R61     9   180.000000     6.861760     2
  CG2DC2   CG2R61   CG2R61    NG311     9   180.000000     2.133840     2
  CG2DC2   CG2R61   CG2R61    OG311     9   180.000000    10.310213     2
  CG2DC2   CG2R61   CG2R61   OG3R60     9   180.000000    12.886720     2
  CG2DC2   CG2R61   CG2R61    HGR61     9   180.000000    10.041600     2
  CG2DC2   CG2R61   CG2R66   CG2R61     9   180.000000    12.970400     2
  CG2DC2   CG2R61   CG2R66   CG2RC0     9   180.000000    12.970400     2
  CG2DC2   CG2R61   CG2R66     FGR1     9   180.000000     8.451680     2
  CG2DC2   CG2R61   CG2RC0   CG2R51     9   180.000000     7.154640     2
  CG2DC2   CG2R61   CG2RC0   CG2RC0     9   180.000000     4.769760     2
  CG2DC2   CG2R61   NG2R60   CG2R61     9   180.000000    26.108160     2
  CG2DC2   CG2R61   NG2R61   CG2R61     9   180.000000     5.104480     2
  CG2DC2   CG2R61   NG2R61     HGP1     9   180.000000     3.054320     2
  CG2DC2   CG2R61   NG2RC0   CG2R51     9   180.000000    10.501840     2
  CG2DC2   CG2R61   NG2RC0   CG2RC0     9   180.000000     8.033280     2
  CG2DC2   CG2R62   CG2R62   CG2R62     9   180.000000    16.903360     2
  CG2DC2   CG2R62   CG2R62    CG331     9   180.000000     6.276000     2
  CG2DC2   CG2R62   CG2R62   NG2R62     9   180.000000    18.158560     2
  CG2DC2   CG2R62   CG2R62    OG311     9   180.000000    19.371920     2
  CG2DC2   CG2R62   CG2R63   NG2R61     9   180.000000     5.564720     2
  CG2DC2   CG2R62   CG2R63    OG2D4     9     0.000000     0.585760     2
  CG2DC2   CG2R62   NG2R61   CG2R62     9   180.000000    17.572800     2
  CG2DC2   CG2R62   NG2R61     HGP2     9   180.000000    14.225600     2
  CG2DC2   CG2R64   NG2R62   CG2R61     9   180.000000    33.723040     2
  CG2DC2   CG2R64   NG2R62   NG2R62     9   180.000000    17.656480     2
  CG2DC2   CG2RC0   CG2RC0   CG2DC2     9   180.000000    12.552000     2
  CG2DC2   CG2RC0   CG2RC0   CG2RC0     9   180.000000     6.276000     2
  CG2DC2   CG2RC0   CG2RC0    NG2D1     9   180.000000     0.000000     2
  CG2DC2   CG2RC0   CG2RC0     HGA4     9   180.000000    25.104000     2
  CG2DC2   CG2RC0    NG2D1   CG2RC0     9   180.000000     5.020800     2
  CG2DC2    CG301    CG301    CG321     9     0.000000     0.836800     3
  CG2DC2    CG301    CG301   OG3C61     9     0.000000     0.502080     3
  CG2DC2    CG301    CG311    CG2D1     9     0.000000    14.351120     1
  CG2DC2    CG301    CG311    CG2D1     9   180.000000     6.527040     3
  CG2DC2    CG301    CG311    CG2D1     9     0.000000     7.070960     4
  CG2DC2    CG301    CG311    CG321     9     0.000000     0.836800     3
  CG2DC2    CG301    CG311     HGA1     9     0.000000     0.836800     3
  CG2DC2    CG301    CG321    CG321     9     0.000000     0.836800     3
  CG2DC2    CG301    CG321     HGA2     9     0.000000     0.794960     3
  CG2DC2    CG301    CG331     HGA3     9     0.000000     0.669440     3
  CG2DC2    CG301    NG311   CG2R61     9     0.000000     5.773920     1
  CG2DC2    CG301    NG311   CG2R61     9     0.000000    10.920240     2
  CG2DC2    CG301    NG311   CG2R61     9   180.000000     2.803280     3
  CG2DC2    CG301    NG311   HGPAM1     9     0.000000     0.000000     2
  CG2DC2    CG301    NG311   HGPAM1     9   180.000000     0.334720     3
  CG2DC2    CG301    OG311     HGP1     9     0.000000     5.773920     1
  CG2DC2    CG301    OG311     HGP1     9   180.000000     0.669440     2
  CG2DC2    CG301    OG311     HGP1     9     0.000000     0.669440     3
  CG2DC2    CG301   OG3C61    CG321     9     0.000000     2.970640     3
  CG2DC2    CG311    CG311    CG311     9     0.000000     0.836800     3
  CG2DC2    CG311    CG311    CG321     9   180.000000     0.585760     1
  CG2DC2    CG311    CG311    CG321     9     0.000000     0.711280     2
  CG2DC2    CG311    CG311    CG321     9   180.000000     0.209200     3
  CG2DC2    CG311    CG311    NG2D1     9   180.000000     0.920480     2
  CG2DC2    CG311    CG311    NG2D1     9   180.000000     3.054320     3
  CG2DC2    CG311    CG311     HGA1     9     0.000000     0.836800     3
  CG2DC2    CG311    CG321    CG2D1     9   180.000000     3.765600     1
  CG2DC2    CG311    CG321    CG2D1     9   180.000000     1.255200     3
  CG2DC2    CG311    CG321   CG2R61     9     0.000000     0.000000     1
  CG2DC2    CG311    CG321   CG2R61     9     0.000000     9.497680     3
  CG2DC2    CG311    CG321    CG321     9   180.000000     0.585760     1
  CG2DC2    CG311    CG321    CG321     9     0.000000     0.711280     2
  CG2DC2    CG311    CG321    CG321     9   180.000000     0.209200     3
  CG2DC2    CG311    CG321    NG301     9     0.000000     2.886960     3
  CG2DC2    CG311    CG321    NG301     9   180.000000     0.543920     4
  CG2DC2    CG311    CG321     HGA2     9     0.000000     0.836800     3
  CG2DC2    CG311    CG331     HGA3     9     0.000000     0.669440     3
  CG2DC2    CG311   CG3RC1   CG3C51     9     0.000000     5.941280     4
  CG2DC2    CG311   CG3RC1    NG2S0     9     0.000000     9.497680     3
  CG2DC2    CG311   CG3RC1    NG2S0     9   180.000000     5.313680     4
  CG2DC2    CG311   CG3RC1     HGA1     9     0.000000     0.000000     3
  CG2DC2    CG311    NG2S0   CG2D1O     9     0.000000     8.828240     1
  CG2DC2    CG311    NG2S0   CG2D1O     9     0.000000     0.669440     2
  CG2DC2    CG311    NG2S0    CG2O1     9   180.000000    33.304640     1
  CG2DC2    CG311    NG2S0    CG2O1     9     0.000000     1.380720     2
  CG2DC2    CG311    NG2S1    CG2O1     9     0.000000    12.091760     1
  CG2DC2    CG311    NG2S1    CG2O1     9     0.000000     9.665040     2
  CG2DC2    CG311    NG2S1    CG2O1     9   180.000000    15.146080     3
  CG2DC2    CG311    NG2S1    CG2O1     9     0.000000     0.083680     4
  CG2DC2    CG311    NG2S1    CG2O1     9   180.000000     1.422560     6
  CG2DC2    CG311    NG2S1     HGP1     9   180.000000     2.343040     1
  CG2DC2    CG311    NG2S1     HGP1     9     0.000000     4.769760     3
  CG2DC2    CG311    NG301    CG321     9   180.000000     4.602400     1
  CG2DC2    CG311    NG301    CG321     9   180.000000     2.510400     2
  CG2DC2    CG311    NG301    CG321     9     0.000000     2.092000     3
  CG2DC2    CG311    NG311   CG2D2O     9   180.000000    28.744080     1
  CG2DC2    CG311    NG311   CG2D2O     9   180.000000    13.137760     2
  CG2DC2    CG311    NG311   CG2D2O     9     0.000000     2.301200     3
  CG2DC2    CG311    NG311   HGPAM1     9     0.000000     2.008320     3
  CG2DC2    CG311    OG311     HGP1     9     0.000000     5.439200     1
  CG2DC2    CG311    OG311     HGP1     9     0.000000     2.928800     2
  CG2DC2    CG311    OG311     HGP1     9     0.000000     0.585760     3
  CG2DC2    CG311   OG3R60   CG2D1O     9     0.000000     2.928800     3
  CG2DC2    CG314    NG2P1    CG2N1     9   180.000000     3.514560     4
  CG2DC2    CG314    NG2P1    CG2N1     9     0.000000     0.543920     6
  CG2DC2    CG314    NG2P1     HGP2     9   180.000000     2.008320     3
  CG2DC2    CG314    NG2P1     HGP2     9     0.000000     3.556400     6
  CG2DC2    CG321    CG321    CG2O1     9     0.000000     0.836800     3
  CG2DC2    CG321    CG321    CG314     9     0.000000     3.012480     3
  CG2DC2    CG321    CG321    CG314     9   180.000000     1.255200     4
  CG2DC2    CG321    CG321    CG321     9     0.000000     0.794960     3
  CG2DC2    CG321    CG321    CG331     9   180.000000     0.585760     1
  CG2DC2    CG321    CG321    CG331     9     0.000000     0.711280     2
  CG2DC2    CG321    CG321    CG331     9   180.000000     0.209200     3
  CG2DC2    CG321    CG321   CG3RC1     9     0.000000     0.836800     3
  CG2DC2    CG321    CG321    NG311     9   180.000000     4.686080     3
  CG2DC2    CG321    CG321    NG311     9     0.000000     2.133840     4
  CG2DC2    CG321    CG321   OG3C61     9   180.000000     1.004160     3
  CG2DC2    CG321    CG321    SG311     9     0.000000     1.287835     1
  CG2DC2    CG321    CG321    SG311     9     0.000000     1.480299     2
  CG2DC2    CG321    CG321    SG311     9   180.000000     1.399130     3
  CG2DC2    CG321    CG321     HGA2     9     0.000000     0.794960     3
  CG2DC2    CG321    CG324    NG3P2     9     0.000000     6.987280     3
  CG2DC2    CG321    CG324    NG3P2     9     0.000000     0.209200     4
  CG2DC2    CG321    CG324     HGA2     9     0.000000     0.794960     3
  CG2DC2    CG321    CG331     HGA3     9     0.000000     0.669440     3
  CG2DC2    CG321    NG301   CG2D1O     9     0.000000     3.389040     1
  CG2DC2    CG321    NG301   CG2D1O     9     0.000000    19.455600     2
  CG2DC2    CG321    NG301   CG2D1O     9   180.000000     4.351360     3
  CG2DC2    CG321    NG301    CG321     9   180.000000     4.602400     1
  CG2DC2    CG321    NG301    CG321     9   180.000000     2.510400     2
  CG2DC2    CG321    NG301    CG321     9     0.000000     2.092000     3
  CG2DC2    CG321    NG301    CG331     9   180.000000     4.602400     1
  CG2DC2    CG321    NG301    CG331     9   180.000000     2.510400     2
  CG2DC2    CG321    NG301    CG331     9     0.000000     2.092000     3
  CG2DC2    CG321    NG311    CG321     9   180.000000     4.602400     1
  CG2DC2    CG321    NG311    CG321     9   180.000000     2.510400     2
  CG2DC2    CG321    NG311    CG321     9     0.000000     2.092000     3
  CG2DC2    CG321    NG311   HGPAM1     9     0.000000     2.008320     3
  CG2DC2    CG321    OG311     HGP1     9     0.000000     5.439200     1
  CG2DC2    CG321    OG311     HGP1     9     0.000000     2.928800     2
  CG2DC2    CG321    OG311     HGP1     9     0.000000     0.585760     3
  CG2DC2    CG321   OG3C61    CG321     9     0.000000     1.380720     1
  CG2DC2    CG321   OG3C61    CG321     9     0.000000     0.836800     2
  CG2DC2    CG321   OG3C61    CG321     9     0.000000     2.886960     3
  CG2DC2    CG321   OG3C61    CG321     9     0.000000     0.083680     4
  CG2DC2    CG321   OG3R60   CG2D1O     9     0.000000     2.928800     3
  CG2DC2    CG321   OG3R60   CG2R61     9     0.000000     6.024960     2
  CG2DC2    CG321   OG3R60   CG2R61     9     0.000000     2.635920     3
  CG2DC2    CG321    SG311    CG321     9   180.000000     0.167360     1
  CG2DC2    CG321    SG311    CG321     9     0.000000     3.305360     3
  CG2DC2    CG321    SG311    CG321     9   180.000000     2.426720     4
  CG2DC2    CG321    SG311   CG3RC1     9   180.000000     5.481040     1
  CG2DC2    CG321    SG311   CG3RC1     9   180.000000     9.957920     3
  CG2DC2    CG321    SG311   CG3RC1     9     0.000000     4.853440     4
  CG2DC2    CG324   NG2R52   CG2R53     9     0.000000     0.125520     2
  CG2DC2    CG324   NG2R52   CG2R53     9     0.000000     6.903600     3
  CG2DC2    CG324   NG2R52   CG3C54     9     0.000000     1.422560     2
  CG2DC2    CG324   NG2R52   CG3C54     9   180.000000     0.251040     3
  CG2DC2    CG324    NG3P2    CG324     9   180.000000     2.928800     1
  CG2DC2    CG324    NG3P2    CG324     9     0.000000     3.347200     3
  CG2DC2    CG324    NG3P2     HGP2     9     0.000000     0.209200     3
  CG2DC2   CG3RC1   CG3RC1   OG3C51     9   180.000000     2.635920     2
  CG2DC2   CG3RC1   CG3RC1   OG3C51     9     0.000000     0.000000     3
  CG2DC2   CG3RC1   CG3RC1     HGA1     9     0.000000     0.000000     3
  CG2DC2   CG3RC1   OG3C51   CG3C50     9   180.000000     3.723760     2
  CG2DC2   CG3RC1   OG3C51   CG3C50     9     0.000000     9.916080     3
  CG2DC2   CG3RC1   OG3C51   CG3C52     9   180.000000     0.000000     2
  CG2DC2   CG3RC1   OG3C51   CG3C52     9     0.000000     0.000000     3
  CG2DC2    NG2D1    NG2D1   CG2R51     9   180.000000     1.046000     2
  CG2DC2    NG2D1    NG2D1   CG2R51     9     0.000000     6.485200     3
  CG2DC2    NG2D1    NG2D1   CG2R51     9     0.000000     0.502080     4
  CG2DC2    NG2D1    NG2P1    CG2N1     9     0.000000     0.543920     2
  CG2DC2    NG2D1    NG2P1    CG2N1     9     0.000000     4.518720     4
  CG2DC2    NG2D1    NG2P1     HGP2     9     0.000000     1.004160     2
  CG2DC2    NG2D1    NG2P1     HGP2     9     0.000000     0.125520     4
  CG2DC2    NG2D1    NG2S1    CG2O1     9   180.000000    14.225600     1
  CG2DC2    NG2D1    NG2S1    CG2O1     9   180.000000     5.439200     2
  CG2DC2    NG2D1    NG2S1     HGP1     9   180.000000    10.460000     2
   NG2D1   CG25C1   CG25C2    OG2D3     9     0.000000     0.083680     2
   NG2D1   CG25C1   CG2RC0   CG2R61     9     0.000000     0.334720     2
   NG2D1   CG25C1   CG2RC0   CG2RC0     9   180.000000     1.380720     2
   NG2D1   CG25C1   CG3C52   CG3C52     9     0.000000     0.711280     2
   NG2D1   CG25C1   CG3C52   CG3C52     9     0.000000     0.585760     3
   NG2D1   CG25C1   CG3C52     HGA2     9   180.000000     0.000000     3
   NG2D1   CG25C2   CG2RC0   CG2R61     9     0.000000     0.334720     2
   NG2D1   CG25C2   CG2RC0   CG2RC0     9   180.000000     1.380720     2
   NG2D1   CG25C2   CG3C52   CG3C52     9     0.000000     0.711280     2
   NG2D1   CG25C2   CG3C52   CG3C52     9     0.000000     0.585760     3
   NG2D1   CG25C2   CG3C52     HGA2     9   180.000000     0.000000     3
   NG2D1    CG2D1    CG301    CG331     9   180.000000     1.840960     1
   NG2D1    CG2D1    CG301    CG331     9   180.000000     4.351360     3
   NG2D1    CG2D1    CG301    CG331     9   180.000000     1.004160     6
   NG2D1    CG2D1    CG301    NG301     9     0.000000     1.213360     1
   NG2D1    CG2D1    CG301    NG301     9     0.000000     0.083680     2
   NG2D1    CG2D1    CG301    NG301     9     0.000000     1.548080     3
   NG2D1    CG2D1    CG311    CG321     9     0.000000     0.251040     1
   NG2D1    CG2D1    CG311    CG321     9     0.000000     0.167360     6
   NG2D1    CG2D1    CG311     HGA1     9   180.000000     0.000000     3
   NG2D1    CG2D1    CG321    CG321     9   180.000000     9.455840     1
   NG2D1    CG2D1    CG321    CG321     9   180.000000     4.225840     3
   NG2D1    CG2D1    CG321    SG311     9   180.000000     0.041840     1
   NG2D1    CG2D1    CG321    SG311     9   180.000000     1.548080     3
   NG2D1    CG2D1    CG321     HGA2     9   180.000000     0.418400     3
   NG2D1    CG2D1    CG331     HGA3     9   180.000000     0.418400     3
   NG2D1    CG2D1   CG3RC1   CG3C31     9   180.000000    21.296560     1
   NG2D1    CG2D1   CG3RC1   CG3C31     9   180.000000     2.217520     2
   NG2D1    CG2D1   CG3RC1   CG3RC1     9     0.000000     2.343040     1
   NG2D1    CG2D1   CG3RC1   CG3RC1     9     0.000000     0.083680     2
   NG2D1    CG2D1   CG3RC1     HGA1     9   180.000000     0.000000     3
   NG2D1   CG2D1O   CG2D1O    NG301     9   180.000000    16.526800     2
   NG2D1   CG2D1O   CG2D1O    NG301     9   180.000000     1.380720     4
   NG2D1   CG2D1O   CG2D1O    NG301     9     0.000000     5.899440     6
   NG2D1   CG2D1O   CG2D1O    NG311     9   180.000000     6.150480     2
   NG2D1   CG2D1O   CG2D1O     HGA4     9     0.000000     0.000000     2
   NG2D1   CG2D1O   CG2DC1    CG2O1     9   180.000000    21.139242     2
   NG2D1   CG2D1O   CG2DC1    CG2O5     9   180.000000    21.129200     2
   NG2D1   CG2D1O   CG2DC1   CG2RC0     9   180.000000    10.460000     2
   NG2D1   CG2D1O   CG2DC1     HGA4     9   180.000000    12.552000     2
   NG2D1   CG2D1O   CG2R61   CG2R61     9   180.000000     1.087840     2
   NG2D1   CG2D1O   CG2R61   CG2R61     9     0.000000     1.213360     6
   NG2D1   CG2D1O    CG311   CG2D1O     9   180.000000    10.292640     1
   NG2D1   CG2D1O    CG311   CG2D1O     9     0.000000     0.209200     2
   NG2D1   CG2D1O    CG311   CG2D1O     9   180.000000     3.556400     3
   NG2D1   CG2D1O    CG311    CG331     9     0.000000     5.481040     2
   NG2D1   CG2D1O    CG311    CG331     9     0.000000     6.024960     3
   NG2D1   CG2D1O    CG311     HGA1     9   180.000000     0.000000     3
   NG2D1   CG2D1O    CG331     HGA3     9   180.000000     0.751865     3
   NG2D1   CG2D1O    OG301    CG331     9     0.000000     2.719600     1
   NG2D1   CG2D1O    OG301    CG331     9   180.000000    24.099840     2
   NG2D1   CG2D1O    OG301    CG331     9   180.000000     3.012480     3
   NG2D1   CG2D1O    OG311     HGP1     9     0.000000     4.225840     1
   NG2D1   CG2D1O    OG311     HGP1     9   180.000000     5.983120     2
   NG2D1   CG2D1O    OG311     HGP1     9     0.000000     0.753120     3
   NG2D1   CG2D1O   OG3R60    CG311     9   180.000000    18.158560     2
   NG2D1   CG2D1O    SG311    CG331     9   180.000000     7.104850     1
   NG2D1   CG2D1O    SG311    CG331     9   180.000000     3.946767     2
   NG2D1   CG2D1O    SG311   CG3C51     9   180.000000     7.104850     1
   NG2D1   CG2D1O    SG311   CG3C51     9   180.000000     3.946767     2
   NG2D1   CG2D2O   CG2D2O    NG301     9   180.000000    16.526800     2
   NG2D1   CG2D2O   CG2D2O    NG301     9   180.000000     1.380720     4
   NG2D1   CG2D2O   CG2D2O    NG301     9     0.000000     5.899440     6
   NG2D1   CG2D2O   CG2D2O    NG311     9   180.000000     6.150480     2
   NG2D1   CG2D2O   CG2D2O     HGA4     9     0.000000     0.000000     2
   NG2D1   CG2D2O   CG2DC2    CG2O1     9   180.000000    21.139242     2
   NG2D1   CG2D2O   CG2DC2    CG2O5     9   180.000000    21.129200     2
   NG2D1   CG2D2O   CG2DC2   CG2RC0     9   180.000000    10.460000     2
   NG2D1   CG2D2O   CG2DC2     HGA4     9   180.000000    12.552000     2
   NG2D1   CG2D2O   CG2R61   CG2R61     9   180.000000     1.087840     2
   NG2D1   CG2D2O   CG2R61   CG2R61     9     0.000000     1.213360     6
   NG2D1   CG2D2O    CG311   CG2D2O     9   180.000000    10.292640     1
   NG2D1   CG2D2O    CG311   CG2D2O     9     0.000000     0.209200     2
   NG2D1   CG2D2O    CG311   CG2D2O     9   180.000000     3.556400     3
   NG2D1   CG2D2O    CG311    CG331     9     0.000000     5.481040     2
   NG2D1   CG2D2O    CG311    CG331     9     0.000000     6.024960     3
   NG2D1   CG2D2O    CG311     HGA1     9   180.000000     0.000000     3
   NG2D1   CG2D2O    CG331     HGA3     9   180.000000     0.751865     3
   NG2D1   CG2D2O    OG301    CG331     9     0.000000     2.719600     1
   NG2D1   CG2D2O    OG301    CG331     9   180.000000    24.099840     2
   NG2D1   CG2D2O    OG301    CG331     9   180.000000     3.012480     3
   NG2D1   CG2D2O    OG311     HGP1     9     0.000000     4.225840     1
   NG2D1   CG2D2O    OG311     HGP1     9   180.000000     5.983120     2
   NG2D1   CG2D2O    OG311     HGP1     9     0.000000     0.753120     3
   NG2D1   CG2D2O   OG3R60    CG311     9   180.000000    18.158560     2
   NG2D1   CG2D2O    SG311    CG331     9   180.000000     7.104850     1
   NG2D1   CG2D2O    SG311    CG331     9   180.000000     3.946767     2
   NG2D1   CG2D2O    SG311   CG3C51     9   180.000000     7.104850     1
   NG2D1   CG2D2O    SG311   CG3C51     9   180.000000     3.946767     2
   NG2D1   CG2DC1   CG2DC2   CG2DC2     9     0.000000     1.999952     1
   NG2D1   CG2DC1   CG2DC2   CG2DC2     9   180.000000     9.258355     2
   NG2D1   CG2DC1   CG2DC2   CG2DC2     9     0.000000     3.904509     3
   NG2D1   CG2DC1   CG2DC2   CG2DC2     9     0.000000     3.471465     4
   NG2D1   CG2DC1   CG2DC2    CG331     9   180.000000     6.736240     1
   NG2D1   CG2DC1   CG2DC2    CG331     9     0.000000     0.000000     2
   NG2D1   CG2DC1   CG2DC2     HGA4     9   180.000000     3.771039     2
   NG2D1   CG2DC1    CG2O3    OG2D2     9     0.000000     2.084469     2
   NG2D1   CG2DC1    CG2O5   CG2DC1     9   180.000000    16.484960     2
   NG2D1   CG2DC1    CG2O5   CG2R51     9   180.000000     0.006694     2
   NG2D1   CG2DC1    CG2O5    OG2D3     9   180.000000     0.046442     2
   NG2D1   CG2DC1    CG2O5    SG3O3     9     0.000000     0.000000     2
   NG2D1   CG2DC1   CG2R51   CG2R51     9     0.000000     1.715440     2
   NG2D1   CG2DC1   CG2R51   NG2R51     9     0.000000     1.799120     2
   NG2D1   CG2DC1   CG2R53   NG2R50     9   180.000000    15.061982     2
   NG2D1   CG2DC1   CG2R53   NG2R51     9   180.000000     7.458817     2
   NG2D1   CG2DC1   CG2R61   CG2R61     9   180.000000     6.694400     2
   NG2D1   CG2DC1   CG2R61   CG2R66     9   180.000000     6.694400     2
   NG2D1   CG2DC1   CG2RC0   CG2RC0     9   180.000000     6.694400     2
   NG2D1   CG2DC1    CG301    CG321     9     0.000000    14.309280     2
   NG2D1   CG2DC1    CG301    CG321     9     0.000000     1.882800     3
   NG2D1   CG2DC1    CG301    CG321     9   180.000000     0.334720     6
   NG2D1   CG2DC1    CG301    OG311     9   180.000000     1.422560     1
   NG2D1   CG2DC1    CG301    OG311     9   180.000000     6.108640     2
   NG2D1   CG2DC1    CG301    OG311     9     0.000000     7.698560     3
   NG2D1   CG2DC1    CG314   CG2R61     9     0.000000     2.468560     2
   NG2D1   CG2DC1    CG314   CG2R61     9   180.000000     3.849280     3
   NG2D1   CG2DC1    CG314    NG2P1     9     0.000000    16.777840     2
   NG2D1   CG2DC1    CG314    NG2P1     9     0.000000     2.803280     3
   NG2D1   CG2DC1    CG314    NG2P1     9     0.000000     0.753120     4
   NG2D1   CG2DC1    CG314     HGA1     9   180.000000     1.631760     3
   NG2D1   CG2DC1    CG321    CG311     9     0.000000     0.251040     2
   NG2D1   CG2DC1    CG321    CG311     9     0.000000     1.966480     3
   NG2D1   CG2DC1    CG321    CG321     9     0.000000     0.252295     2
   NG2D1   CG2DC1    CG321    CG321     9     0.000000     1.977777     3
   NG2D1   CG2DC1    CG321   OG3R60     9     0.000000     0.125520     2
   NG2D1   CG2DC1    CG321   OG3R60     9     0.000000     3.138000     3
   NG2D1   CG2DC1    CG321     HGA2     9   180.000000     1.615024     3
   NG2D1   CG2DC1    CG331     HGA3     9   180.000000     1.615024     3
   NG2D1   CG2DC2    CG2O3    OG2D2     9     0.000000     2.084469     2
   NG2D1   CG2DC2    CG2O5   CG2DC2     9   180.000000    16.484960     2
   NG2D1   CG2DC2    CG2O5   CG2R51     9   180.000000     0.006694     2
   NG2D1   CG2DC2    CG2O5    OG2D3     9   180.000000     0.046442     2
   NG2D1   CG2DC2    CG2O5    SG3O3     9     0.000000     0.000000     2
   NG2D1   CG2DC2   CG2R51   CG2R51     9     0.000000     1.715440     2
   NG2D1   CG2DC2   CG2R51   NG2R51     9     0.000000     1.799120     2
   NG2D1   CG2DC2   CG2R53   NG2R50     9   180.000000    15.061982     2
   NG2D1   CG2DC2   CG2R53   NG2R51     9   180.000000     7.458817     2
   NG2D1   CG2DC2   CG2R61   CG2R61     9   180.000000     6.694400     2
   NG2D1   CG2DC2   CG2R61   CG2R66     9   180.000000     6.694400     2
   NG2D1   CG2DC2   CG2RC0   CG2RC0     9   180.000000     6.694400     2
   NG2D1   CG2DC2    CG301    CG321     9     0.000000    14.309280     2
   NG2D1   CG2DC2    CG301    CG321     9     0.000000     1.882800     3
   NG2D1   CG2DC2    CG301    CG321     9   180.000000     0.334720     6
   NG2D1   CG2DC2    CG301    OG311     9   180.000000     1.422560     1
   NG2D1   CG2DC2    CG301    OG311     9   180.000000     6.108640     2
   NG2D1   CG2DC2    CG301    OG311     9     0.000000     7.698560     3
   NG2D1   CG2DC2    CG314   CG2R61     9     0.000000     2.468560     2
   NG2D1   CG2DC2    CG314   CG2R61     9   180.000000     3.849280     3
   NG2D1   CG2DC2    CG314    NG2P1     9     0.000000    16.777840     2
   NG2D1   CG2DC2    CG314    NG2P1     9     0.000000     2.803280     3
   NG2D1   CG2DC2    CG314    NG2P1     9     0.000000     0.753120     4
   NG2D1   CG2DC2    CG314     HGA1     9   180.000000     1.631760     3
   NG2D1   CG2DC2    CG321    CG311     9     0.000000     0.251040     2
   NG2D1   CG2DC2    CG321    CG311     9     0.000000     1.966480     3
   NG2D1   CG2DC2    CG321    CG321     9     0.000000     0.252295     2
   NG2D1   CG2DC2    CG321    CG321     9     0.000000     1.977777     3
   NG2D1   CG2DC2    CG321   OG3R60     9     0.000000     0.125520     2
   NG2D1   CG2DC2    CG321   OG3R60     9     0.000000     3.138000     3
   NG2D1   CG2DC2    CG321     HGA2     9   180.000000     1.615024     3
   NG2D1   CG2DC2    CG331     HGA3     9   180.000000     1.615024     3
   NG2D1    CG2N1    NG2P1    CG2N1     9   180.000000     0.711280     1
   NG2D1    CG2N1    NG2P1    CG2N1     9   180.000000     9.330320     2
   NG2D1    CG2N1    NG2P1    CG2N1     9     0.000000     0.292880     3
   NG2D1    CG2N1    NG2P1     HGP2     9     0.000000     0.292880     1
   NG2D1    CG2N1    NG2P1     HGP2     9   180.000000     2.594080     2
   NG2D1    CG2N1    NG311    CG314     9     0.000000     9.414000     2
   NG2D1    CG2N1    NG311    CG314     9   180.000000     3.138000     4
   NG2D1    CG2N1    NG311    CG331     9   180.000000     2.092000     2
   NG2D1    CG2N1    NG311   HGPAM1     9   180.000000    11.715200     2
   NG2D1    CG2N1    NG321   HGPAM2     9   180.000000     0.836800     2
   NG2D1    CG2N1    NG321   HGPAM2     9     0.000000     0.627600     6
   NG2D1    CG2N2    CG2N2    NG2P1     9   180.000000     0.418400     2
   NG2D1    CG2N2    CG2N2    NG2P1     9     0.000000     0.836800     6
   NG2D1    CG2N2   CG2R61   CG2R61     9   180.000000     1.715440     2
   NG2D1    CG2N2   CG2R61   CG2R61     9     0.000000     2.635920     4
   NG2D1    CG2N2    CG331     HGA3     9     0.000000     0.000000     3
   NG2D1    CG2N2    NG2D1   CG2D1O     9   180.000000    27.500177     2
   NG2D1    CG2N2    NG2D1   CG2D2O     9   180.000000    27.500177     2
   NG2D1    CG2N2    NG2D1   CG2DC1     9   180.000000    27.488880     2
   NG2D1    CG2N2    NG2D1   CG2DC2     9   180.000000    27.488880     2
   NG2D1    CG2N2    NG2D1    CG2O1     9     0.000000    22.637114     2
   NG2D1    CG2N2    NG2D1   NG2R61     9   180.000000    22.384400     2
   NG2D1    CG2N2    NG2D1    SG3O3     9     0.000000     0.000000     2
   NG2D1    CG2N2    NG2P1    CG2N1     9   180.000000     5.983120     2
   NG2D1    CG2N2    NG2P1     HGP2     9     0.000000     4.016640     2
   NG2D1    CG2N2    NG301   CG2R61     9   180.000000     1.046000     2
   NG2D1    CG2N2    NG301    CG331     9   180.000000     3.849280     2
   NG2D1    CG2N2    NG311   CG2R61     9     0.000000     0.209200     2
   NG2D1    CG2N2    NG311    CG321     9   180.000000     2.092000     2
   NG2D1    CG2N2    NG311   HGPAM1     9   180.000000    11.715200     2
   NG2D1    CG2N2    NG321   HGPAM2     9   180.000000     0.836800     2
   NG2D1    CG2N2    NG321   HGPAM2     9     0.000000     0.627600     6
   NG2D1    CG2N2    NG3N1    NG2D1     9   180.000000     6.527040     2
   NG2D1    CG2N2    NG3N1     HGP1     9   180.000000    10.376320     2
   NG2D1    CG2N2    OG301    CG331     9   180.000000     0.292880     1
   NG2D1    CG2N2    OG301    CG331     9     0.000000     0.585760     2
   NG2D1    CG2N2    OG301    CG331     9   180.000000     1.004160     3
   NG2D1    CG2N2    SG311    CG321     9   180.000000     4.686080     2
   NG2D1    CG2N2    SG311    CG331     9   180.000000     4.686080     2
   NG2D1    CG2N2    SG311   CG3RC1     9     0.000000     1.129680     2
   NG2D1    CG2O1   CG2R61   CG2R61     9   180.000000     4.184000     2
   NG2D1    CG2O1   CG2R62   CG2R62     9   180.000000     4.184000     2
   NG2D1    CG2O1   CG2R62   NG2R61     9     0.000000     6.276000     2
   NG2D1    CG2O1    CG311    CG2O1     9   180.000000     0.000000     1
   NG2D1    CG2O1    CG311    CG2O1     9   180.000000     4.518720     2
   NG2D1    CG2O1    CG311    CG2O1     9   180.000000     8.326160     3
   NG2D1    CG2O1    CG311    CG2O1     9     0.000000     1.171520     4
   NG2D1    CG2O1    CG311    CG331     9     0.000000    14.101754     1
   NG2D1    CG2O1    CG311    CG331     9     0.000000     3.312891     2
   NG2D1    CG2O1    CG311    NG2S1     9   180.000000    21.755963     1
   NG2D1    CG2O1    CG311    NG2S1     9   180.000000     9.223628     2
   NG2D1    CG2O1    CG311     HGA1     9   180.000000    14.039412     1
   NG2D1    CG2O1    CG324    NG2P1     9   180.000000     2.928800     1
   NG2D1    CG2O1    CG324    NG2P1     9   180.000000    10.418160     2
   NG2D1    CG2O1    CG324    NG2P1     9   180.000000     3.807440     3
   NG2D1    CG2O1    CG324     HGA2     9     0.000000     0.000000     1
   NG2D1    CG2O1    CG324     HGA2     9     0.000000     0.000000     2
   NG2D1    CG2O1    CG324     HGA2     9     0.000000     0.000000     3
   NG2D1    CG2O1    CG331     HGA3     9     0.000000     0.000000     3
   NG2D1    CG2O6    NG2D1   CG2D1O     9   180.000000     7.907760     2
   NG2D1    CG2O6    NG2D1   CG2D2O     9   180.000000     7.907760     2
   NG2D1    CG2O6    NG2S1    CG2O1     9   180.000000     0.920480     2
   NG2D1    CG2O6    NG2S1    CG311     9     0.000000     1.589920     1
   NG2D1    CG2O6    NG2S1    CG311     9   180.000000     0.962320     2
   NG2D1    CG2O6    NG2S1     HGP1     9   180.000000     4.560560     2
   NG2D1   CG2R51   CG3C52   CG3C52     9     0.000000     1.422560     2
   NG2D1   CG2R51   CG3C52   CG3C52     9     0.000000     1.422560     3
   NG2D1   CG2R51   CG3C52     HGA2     9     0.000000     0.000000     3
   NG2D1   CG2R51   CG3RC1    CG321     9     0.000000    26.401040     2
   NG2D1   CG2R51   CG3RC1    CG321     9   180.000000     7.489360     3
   NG2D1   CG2R51   CG3RC1   CG3C52     9     0.000000     1.924640     2
   NG2D1   CG2R51   CG3RC1   CG3C52     9     0.000000     2.133840     3
   NG2D1   CG2R51   CG3RC1     HGA1     9     0.000000     0.000000     3
   NG2D1   CG2R53   CG2RC7   CG2R51     9     0.000000     0.000000     2
   NG2D1   CG2R53   CG2RC7   CG2R71     9     0.000000     0.000000     2
   NG2D1   CG2R53   NG2R50   NG2R51     9   180.000000    28.283840     2
   NG2D1   CG2R61   CG2R61    OG311     9   180.000000     0.000000     2
   NG2D1   CG2R61   CG2R61   OG3R60     9   180.000000     4.184000     2
   NG2D1   CG2R61   CG2R61    HGR61     9   180.000000    10.041600     2
   NG2D1   CG2R61   OG3R60   CG2R61     9   180.000000     8.911920     2
   NG2D1   CG2R62   CG2R62    HGR63     9   180.000000     5.564720     2
   NG2D1   CG2R62   NG2R61   CG2R62     9   180.000000    13.681680     2
   NG2D1   CG2R62   NG2R61    CG324     9     0.000000     0.000000     2
   NG2D1   CG2R62   NG2R62   CG2R62     9   180.000000    18.074880     2
   NG2D1   CG2R64   CG2RC0   CG2R52     9     0.000000     0.878640     2
   NG2D1   CG2R64   CG2RC0   CG2RC0     9   180.000000    12.552000     2
   NG2D1   CG2R64   CG2RC0   NG2R50     9   180.000000     0.000000     2
   NG2D1   CG2R64    NG2P1   CG2R64     9   180.000000     4.184000     2
   NG2D1   CG2R64    NG2P1     HGP2     9   180.000000     2.092000     2
   NG2D1   CG2R64   NG2R60   CG2R61     9   180.000000    22.509920     2
   NG2D1   CG2R64   NG2R60   CG2R64     9   180.000000    31.547360     2
   NG2D1   CG2R64   NG2R61    CG2O1     9     0.000000     0.000000     2
   NG2D1   CG2R64   NG2R61   CG2R51     9   180.000000    33.639360     2
   NG2D1   CG2R64   NG2R61   CG2R61     9   180.000000     7.280160     2
   NG2D1   CG2R64   NG2R61   CG2R63     9   180.000000    12.552000     2
   NG2D1   CG2R64   NG2R61   CG2R64     9   180.000000    12.552000     2
   NG2D1   CG2R64   NG2R61   CG2RC0     9   180.000000     7.280160     2
   NG2D1   CG2R64   NG2R61    CG321     9   180.000000    17.907520     2
   NG2D1   CG2R64   NG2R61    CG324     9   180.000000     5.899440     2
   NG2D1   CG2R64   NG2R61    CG331     9   180.000000    20.083200     2
   NG2D1   CG2R64   NG2R61   CG3C52     9     0.000000     0.000000     2
   NG2D1   CG2R64   NG2R61    NG2S3     9     0.000000     0.000000     2
   NG2D1   CG2R64   NG2R61     HGP1     9   180.000000     0.000000     2
   NG2D1   CG2R64   NG2R62   CG2R61     9   180.000000    12.552000     2
   NG2D1   CG2R64   NG2R62   CG2R64     9   180.000000    12.552000     2
   NG2D1   CG2R64   NG2R67   CG2R61     9     0.000000     8.870080     2
   NG2D1   CG2R64   NG2R67   CG2R67     9     0.000000     0.376560     2
   NG2D1   CG2R64    SG311   CG2R61     9   180.000000     0.167360     2
   NG2D1   CG2R64    SG311   CG2R61     9   180.000000     0.418400     4
   NG2D1   CG2R71    CG331     HGA3     9   180.000000     0.000000     6
   NG2D1   CG2R71    NG3N1    NG2S1     9     0.000000     1.171520     2
   NG2D1   CG2R71    NG3N1     HGP1     9   180.000000     0.376560     2
   NG2D1   CG2R71    NG3N1     HGP1     9   180.000000     3.263520     3
   NG2D1    CG301    CG321    CG311     9     0.000000     1.924640     1
   NG2D1    CG301    CG321    CG311     9     0.000000     1.548080     2
   NG2D1    CG301    CG321    CG311     9     0.000000     0.083680     3
   NG2D1    CG301    CG321    CG311     9     0.000000     0.669440     4
   NG2D1    CG301    CG321    CG311     9   180.000000     0.460240     6
   NG2D1    CG301    CG321     HGA2     9     0.000000     0.000000     3
   NG2D1    CG301    CG331     HGA3     9     0.000000     0.627600     3
   NG2D1    CG311    CG311    NG301     9   180.000000     1.046000     1
   NG2D1    CG311    CG311    NG301     9     0.000000     0.000000     2
   NG2D1    CG311    CG311    NG301     9   180.000000     5.564720     3
   NG2D1    CG311    CG311    NG301     9     0.000000     6.485200     4
   NG2D1    CG311    CG311    NG301     9   180.000000     0.878640     6
   NG2D1    CG311    CG311    NG311     9     0.000000     3.681920     1
   NG2D1    CG311    CG311    NG311     9     0.000000    13.849040     2
   NG2D1    CG311    CG311    NG311     9   180.000000    12.803040     3
   NG2D1    CG311    CG311    NG311     9   180.000000     4.978960     4
   NG2D1    CG311    CG311    NG311     9   180.000000     0.878640     6
   NG2D1    CG311    CG311     HGA1     9     0.000000     0.836800     3
   NG2D1    CG311    CG321   CG2R51     9     0.000000    15.982880     3
   NG2D1    CG311    CG321    CG321     9   180.000000     3.305360     1
   NG2D1    CG311    CG321    CG321     9     0.000000     0.836800     2
   NG2D1    CG311    CG321    CG321     9     0.000000     0.502080     3
   NG2D1    CG311    CG321    CG321     9     0.000000     0.627600     4
   NG2D1    CG311    CG321    CG321     9   180.000000     0.209200     6
   NG2D1    CG311    CG321    NG311     9   180.000000     0.041840     1
   NG2D1    CG311    CG321    NG311     9     0.000000     0.669440     2
   NG2D1    CG311    CG321    NG311     9   180.000000     0.376560     3
   NG2D1    CG311    CG321    NG311     9   180.000000     0.460240     4
   NG2D1    CG311    CG321    NG311     9     0.000000     0.711280     6
   NG2D1    CG311    CG321     HGA2     9     0.000000     0.836800     3
   NG2D1    CG311    CG331     HGA3     9     0.000000     0.000000     3
   NG2D1    CG311    NG301   CG2D1O     9   180.000000    10.501840     1
   NG2D1    CG311    NG301   CG2D1O     9   180.000000     8.786400     3
   NG2D1    CG311    NG301   CG2D1O     9     0.000000    10.292640     4
   NG2D1    CG311    NG301   CG2D2O     9   180.000000    10.501840     1
   NG2D1    CG311    NG301   CG2D2O     9   180.000000     8.786400     3
   NG2D1    CG311    NG301   CG2D2O     9     0.000000    10.292640     4
   NG2D1    CG311    NG301    OG311     9     0.000000     0.585760     1
   NG2D1    CG311    NG301    OG311     9     0.000000    16.066560     2
   NG2D1    CG311    NG301    OG311     9     0.000000     2.217520     3
   NG2D1    CG321    CG321     HGA2     9     0.000000     0.836800     3
   NG2D1    CG321    CG331     HGA3     9     0.000000     0.627600     3
   NG2D1    CG321    NG311   CG2D1O     9     0.000000     1.087840     1
   NG2D1    CG321    NG311   CG2D1O     9     0.000000     9.539520     2
   NG2D1    CG321    NG311   CG2D1O     9     0.000000     2.384880     3
   NG2D1    CG321    NG311   CG2D2O     9     0.000000     1.087840     1
   NG2D1    CG321    NG311   CG2D2O     9     0.000000     9.539520     2
   NG2D1    CG321    NG311   CG2D2O     9     0.000000     2.384880     3
   NG2D1    CG321    NG311   HGPAM1     9     0.000000     5.690240     2
   NG2D1    CG321    NG311   HGPAM1     9   180.000000    10.501840     3
   NG2D1    CG324    NG2P1    CG2N1     9     0.000000     1.380720     2
   NG2D1    CG324    NG2P1    CG2N1     9   180.000000     1.966480     6
   NG2D1    CG324    NG2P1   CG2R61     9   180.000000     3.138000     2
   NG2D1    CG324    NG2P1   CG2R61     9     0.000000     4.476880     3
   NG2D1        C      CT1      CT3     9     0.000000    14.101754     1
   NG2D1        C      CT1      CT3     9     0.000000     3.312891     2
   NG2D1        C      CT1      HB1     9   180.000000    14.039412     1
   NG2D1        C      CT1      NH1     9   180.000000    21.755963     1
   NG2D1        C      CT1      NH1     9   180.000000     9.223628     2
   OG2D3   CG25C1   CG25C2   CG2RC0     9   180.000000     4.142160     2
   OG2D3   CG25C1   CG25C2    NG2D1     9     0.000000     0.083680     2
   OG2D3   CG25C1   CG2R52    CG331     9   180.000000    11.924400     2
   OG2D3   CG25C1   CG2R52   NG2R50     9   180.000000     5.313680     2
   OG2D3   CG25C1   CG3C50    CG321     9     0.000000     1.004160     3
   OG2D3   CG25C1   CG3C50   OG3C51     9     0.000000     0.000000     2
   OG2D3   CG25C1   CG3C50   OG3C51     9     0.000000     0.543920     3
   OG2D3   CG25C2   CG2R52    CG331     9   180.000000    11.924400     2
   OG2D3   CG25C2   CG2R52   NG2R50     9   180.000000     5.313680     2
   OG2D3   CG25C2   CG3C50    CG321     9     0.000000     1.004160     3
   OG2D3   CG25C2   CG3C50   OG3C51     9     0.000000     0.000000     2
   OG2D3   CG25C2   CG3C50   OG3C51     9     0.000000     0.543920     3
   OG2D3    CG2O4    CG2O4    OG2D3     9   180.000000     0.977382     2
   OG2D3    CG2O4   CG2RC0   CG2RC0     9     0.000000     0.000000     2
   OG2D3    CG2O4   CG2RC0    NG311     9   180.000000     5.983120     2
   OG2D3    CG2O4   CG3C41   CG2R61     9     0.000000     0.000000     2
   OG2D3    CG2O4   CG3C41   CG2R61     9     0.000000     1.631760     4
   OG2D3    CG2O4   CG3C41    CG321     9     0.000000     4.978960     2
   OG2D3    CG2O4   CG3C41    CG324     9   180.000000     0.627600     2
   OG2D3    CG2O4   CG3C41    CG324     9   180.000000     0.753120     3
   OG2D3    CG2O4   CG3C41   CG3C41     9     0.000000     0.418400     2
   OG2D3    CG2O4   CG3C41   CG3RC1     9     0.000000     0.083680     2
   OG2D3    CG2O4   CG3C41   CG3RC1     9     0.000000     1.840960     6
   OG2D3    CG2O4   CG3C41   OG3C51     9     0.000000     0.736802     2
   OG2D3    CG2O4   CG3C41     HGA1     9     0.000000     0.962320     3
   OG2D3    CG2O4   CG3C41     HGA2     9     0.000000     0.948931     3
   OG2D3    CG2O4   CG3RC1   CG3C54     9   180.000000     5.230000     2
   OG2D3    CG2O4   CG3RC1   CG3C54     9   180.000000     0.209200     3
   OG2D3    CG2O4   CG3RC1   CG3C54     9     0.000000     1.087840     6
   OG2D3    CG2O4   CG3RC1   CG3RC1     9   180.000000     0.962320     2
   OG2D3    CG2O4   CG3RC1   CG3RC1     9     0.000000     0.251040     6
   OG2D3    CG2O4   CG3RC1     HGA1     9     0.000000     0.000000     3
   OG2D3    CG2O5    CG2O5    OG2D3     9   180.000000     0.977382     2
   OG2D3    CG2O5   CG2R51   CG2R51     9   180.000000     4.571020     2
   OG2D3    CG2O5   CG2R51   CG2R53     9   180.000000     4.560560     2
   OG2D3    CG2O5   CG2R51   CG2RC7     9   180.000000    23.514080     2
   OG2D3    CG2O5   CG2R51   NG2R50     9   180.000000     7.238320     2
   OG2D3    CG2O5   CG2R51   NG2R51     9   180.000000     7.993114     2
   OG2D3    CG2O5   CG2R51   OG3C51     9     0.000000     4.309520     2
   OG2D3    CG2O5   CG2R52   CG2R51     9   180.000000     4.560560     2
   OG2D3    CG2O5   CG2R52   NG2R50     9     0.000000     0.000000     2
   OG2D3    CG2O5   CG2R53   NG2R50     9   180.000000    14.727680     2
   OG2D3    CG2O5   CG2R53   SG2R50     9     0.000000     0.000000     2
   OG2D3    CG2O5   CG2R61   CG2R61     9   180.000000     6.631640     2
   OG2D3    CG2O5   CG2R61   CG2R64     9   180.000000     6.610720     2
   OG2D3    CG2O5   CG2R61   CG2R67     9   180.000000     6.610720     2
   OG2D3    CG2O5   CG2R61   CG2RC0     9   180.000000     6.610720     2
   OG2D3    CG2O5   CG2R61   NG2R60     9     0.000000     0.753120     2
   OG2D3    CG2O5   CG2R62   CG2R62     9   180.000000     6.610720     2
   OG2D3    CG2O5   CG2R62   CG2R63     9   180.000000     6.610720     2
   OG2D3    CG2O5    CG301    CG2O3     9   180.000000     4.351360     2
   OG2D3    CG2O5    CG301    CG321     9     0.000000     0.083680     1
   OG2D3    CG2O5    CG301    CG321     9     0.000000     2.217520     2
   OG2D3    CG2O5    CG301    CG321     9     0.000000     5.313680     3
   OG2D3    CG2O5    CG301    CG321     9   180.000000     1.422560     6
   OG2D3    CG2O5    CG301    CG331     9     0.000000     0.000000     1
   OG2D3    CG2O5    CG301    CG331     9     0.000000     0.083680     2
   OG2D3    CG2O5    CG301    CG331     9   180.000000     0.460240     3
   OG2D3    CG2O5    CG301    CG331     9   180.000000     1.171520     4
   OG2D3    CG2O5    CG301    CG331     9     0.000000     0.543920     6
   OG2D3    CG2O5    CG301   CG3C51     9   180.000000     0.878640     1
   OG2D3    CG2O5    CG301   CG3C51     9   180.000000     2.677760     2
   OG2D3    CG2O5    CG301   CG3C51     9   180.000000     5.020800     3
   OG2D3    CG2O5    CG301   CG3C51     9   180.000000     2.468560     6
   OG2D3    CG2O5    CG301    OG311     9     0.000000     0.000000     2
   OG2D3    CG2O5    CG311    CG2D1     9   180.000000     5.564720     1
   OG2D3    CG2O5    CG311    CG2D1     9     0.000000     1.087840     3
   OG2D3    CG2O5    CG311    CG2O1     9     0.000000     4.476880     2
   OG2D3    CG2O5    CG311    CG2O1     9   180.000000     1.799120     4
   OG2D3    CG2O5    CG311    CG2O2     9     0.000000     0.753120     2
   OG2D3    CG2O5    CG311    CG2O2     9   180.000000     0.418400     6
   OG2D3    CG2O5    CG311    CG2O3     9     0.000000     0.000000     2
   OG2D3    CG2O5    CG311    CG2O3     9     0.000000     2.384880     3
   OG2D3    CG2O5    CG311    CG2O5     9   180.000000     0.125520     2
   OG2D3    CG2O5    CG311    CG2O5     9     0.000000     0.543920     3
   OG2D3    CG2O5    CG311   CG2R61     9     0.000000     0.000000     1
   OG2D3    CG2O5    CG311   CG2R61     9     0.000000     0.000000     2
   OG2D3    CG2O5    CG311   CG2R61     9   180.000000     2.677760     3
   OG2D3    CG2O5    CG311    CG301     9   180.000000     3.138000     1
   OG2D3    CG2O5    CG311    CG301     9   180.000000     0.753120     2
   OG2D3    CG2O5    CG311    CG301     9   180.000000     0.292880     3
   OG2D3    CG2O5    CG311    CG301     9     0.000000     0.125520     6
   OG2D3    CG2O5    CG311    CG302     9     0.000000     0.041840     1
   OG2D3    CG2O5    CG311    CG302     9     0.000000     0.209200     2
   OG2D3    CG2O5    CG311    CG302     9     0.000000     1.338880     3
   OG2D3    CG2O5    CG311    CG302     9   180.000000     2.301200     4
   OG2D3    CG2O5    CG311    CG302     9   180.000000     0.000000     6
   OG2D3    CG2O5    CG311    CG311     9   180.000000     3.138000     1
   OG2D3    CG2O5    CG311    CG311     9   180.000000     0.753120     2
   OG2D3    CG2O5    CG311    CG311     9   180.000000     0.292880     3
   OG2D3    CG2O5    CG311    CG311     9     0.000000     0.125520     6
   OG2D3    CG2O5    CG311    CG314     9     0.000000     0.460240     1
   OG2D3    CG2O5    CG311    CG314     9   180.000000     2.050160     2
   OG2D3    CG2O5    CG311    CG314     9   180.000000     2.928800     3
   OG2D3    CG2O5    CG311    CG314     9     0.000000     0.334720     6
   OG2D3    CG2O5    CG311    CG321     9   180.000000     3.138000     1
   OG2D3    CG2O5    CG311    CG321     9   180.000000     0.753120     2
   OG2D3    CG2O5    CG311    CG321     9   180.000000     0.292880     3
   OG2D3    CG2O5    CG311    CG321     9     0.000000     0.125520     6
   OG2D3    CG2O5    CG311    CG324     9     0.000000     0.669440     1
   OG2D3    CG2O5    CG311    CG324     9   180.000000     0.041840     2
   OG2D3    CG2O5    CG311    CG324     9   180.000000     4.058480     3
   OG2D3    CG2O5    CG311    CG324     9     0.000000     0.167360     4
   OG2D3    CG2O5    CG311    CG324     9   180.000000     0.334720     6
   OG2D3    CG2O5    CG311    CG331     9   180.000000     3.138000     1
   OG2D3    CG2O5    CG311    CG331     9   180.000000     0.753120     2
   OG2D3    CG2O5    CG311    CG331     9   180.000000     0.292880     3
   OG2D3    CG2O5    CG311    CG331     9     0.000000     0.125520     6
   OG2D3    CG2O5    CG311   NG2R53     9     0.000000     1.004160     1
   OG2D3    CG2O5    CG311   NG2R53     9     0.000000     0.460240     6
   OG2D3    CG2O5    CG311    NG301     9   180.000000     0.209200     6
   OG2D3    CG2O5    CG311    NG311     9   180.000000     0.292880     6
   OG2D3    CG2O5    CG311    NG321     9     0.000000     1.673600     4
   OG2D3    CG2O5    CG311    NG321     9   180.000000     1.422560     6
   OG2D3    CG2O5    CG311    OG311     9     0.000000     0.000000     2
   OG2D3    CG2O5    CG311    OG312     9   180.000000     0.000000     2
   OG2D3    CG2O5    CG311   OG3C61     9   180.000000     0.711280     2
   OG2D3    CG2O5    CG311   OG3C61     9     0.000000     0.251040     6
   OG2D3    CG2O5    CG311    SG3O1     9   180.000000     3.179840     2
   OG2D3    CG2O5    CG311    SG3O1     9     0.000000     0.585760     3
   OG2D3    CG2O5    CG311     HGA1     9     0.000000     0.000000     1
   OG2D3    CG2O5    CG312    CG321     9   180.000000     2.886960     1
   OG2D3    CG2O5    CG312    CG321     9     0.000000     0.669440     2
   OG2D3    CG2O5    CG312    CG321     9     0.000000     0.209200     3
   OG2D3    CG2O5    CG312    CG321     9   180.000000     2.259360     6
   OG2D3    CG2O5    CG312     FGA2     9     0.000000     0.962320     2
   OG2D3    CG2O5    CG312     FGA2     9     0.000000     1.129680     6
   OG2D3    CG2O5    CG314    CG331     9   180.000000     3.138000     1
   OG2D3    CG2O5    CG314    CG331     9   180.000000     0.753120     2
   OG2D3    CG2O5    CG314    CG331     9   180.000000     0.292880     3
   OG2D3    CG2O5    CG314    CG331     9     0.000000     0.125520     6
   OG2D3    CG2O5    CG314    NG3P1     9   180.000000     2.092000     2
   OG2D3    CG2O5    CG314    NG3P1     9   180.000000     0.000000     4
   OG2D3    CG2O5    CG314     HGA1     9     0.000000     0.000000     1
   OG2D3    CG2O5    CG321    CG2D1     9   180.000000     2.468560     1
   OG2D3    CG2O5    CG321    CG2D1     9   180.000000     3.347200     2
   OG2D3    CG2O5    CG321    CG2O1     9     0.000000     3.054320     2
   OG2D3    CG2O5    CG321    CG2O1     9     0.000000     4.602400     3
   OG2D3    CG2O5    CG321    CG2O1     9     0.000000     2.594080     4
   OG2D3    CG2O5    CG321    CG2O5     9     0.000000     3.598240     2
   OG2D3    CG2O5    CG321    CG2O5     9     0.000000     5.564720     3
   OG2D3    CG2O5    CG321    CG2O5     9     0.000000     1.548080     4
   OG2D3    CG2O5    CG321   CG2R51     9     0.000000     7.531200     1
   OG2D3    CG2O5    CG321   CG2R51     9   180.000000     6.568880     4
   OG2D3    CG2O5    CG321    CG301     9   180.000000     3.138000     1
   OG2D3    CG2O5    CG321    CG301     9   180.000000     0.753120     2
   OG2D3    CG2O5    CG321    CG301     9   180.000000     0.292880     3
   OG2D3    CG2O5    CG321    CG301     9     0.000000     0.125520     6
   OG2D3    CG2O5    CG321    CG311     9   180.000000     3.138000     1
   OG2D3    CG2O5    CG321    CG311     9   180.000000     0.753120     2
   OG2D3    CG2O5    CG321    CG311     9   180.000000     0.292880     3
   OG2D3    CG2O5    CG321    CG311     9     0.000000     0.125520     6
   OG2D3    CG2O5    CG321    CG314     9     0.000000     0.418400     1
   OG2D3    CG2O5    CG321    CG314     9   180.000000     0.000000     2
   OG2D3    CG2O5    CG321    CG314     9     0.000000     0.000000     3
   OG2D3    CG2O5    CG321    CG314     9     0.000000     0.334720     6
   OG2D3    CG2O5    CG321    CG321     9   180.000000     3.138000     1
   OG2D3    CG2O5    CG321    CG321     9   180.000000     0.753120     2
   OG2D3    CG2O5    CG321    CG321     9   180.000000     0.271960     3
   OG2D3    CG2O5    CG321    CG321     9     0.000000     0.125520     6
   OG2D3    CG2O5    CG321    CG324     9   180.000000     0.125520     1
   OG2D3    CG2O5    CG321    CG324     9     0.000000     2.719600     2
   OG2D3    CG2O5    CG321    CG324     9     0.000000     6.903600     3
   OG2D3    CG2O5    CG321    CG324     9     0.000000     0.460240     4
   OG2D3    CG2O5    CG321    CG324     9     0.000000     0.753120     6
   OG2D3    CG2O5    CG321    CG331     9   180.000000     3.138000     1
   OG2D3    CG2O5    CG321    CG331     9   180.000000     0.753120     2
   OG2D3    CG2O5    CG321    CG331     9   180.000000     0.271960     3
   OG2D3    CG2O5    CG321    CG331     9     0.000000     0.125520     6
   OG2D3    CG2O5    CG321   CG3C50     9     0.000000     0.502080     1
   OG2D3    CG2O5    CG321   CG3C50     9     0.000000     0.543920     2
   OG2D3    CG2O5    CG321   CG3C50     9     0.000000     0.334720     3
   OG2D3    CG2O5    CG321   CG3C50     9   180.000000     1.380720     4
   OG2D3    CG2O5    CG321   CG3C50     9   180.000000     0.753120     6
   OG2D3    CG2O5    CG321   CG3RC1     9     0.000000     3.681920     1
   OG2D3    CG2O5    CG321   CG3RC1     9     0.000000     2.928800     2
   OG2D3    CG2O5    CG321   CG3RC1     9   180.000000     2.259360     3
   OG2D3    CG2O5    CG321   CG3RC1     9   180.000000     3.305360     4
   OG2D3    CG2O5    CG321   CG3RC1     9     0.000000     0.167360     6
   OG2D3    CG2O5    CG321    NG301     9   180.000000     1.673600     4
   OG2D3    CG2O5    CG321    NG301     9     0.000000     0.000000     6
   OG2D3    CG2O5    CG321    SG311     9   180.000000     0.034309     2
   OG2D3    CG2O5    CG321    SG311     9   180.000000     0.823411     3
   OG2D3    CG2O5    CG321     HGA2     9     0.000000     0.000000     3
   OG2D3    CG2O5    CG322    CG321     9   180.000000     2.886960     1
   OG2D3    CG2O5    CG322    CG321     9   180.000000     1.673600     2
   OG2D3    CG2O5    CG322    CG321     9     0.000000     2.384880     3
   OG2D3    CG2O5    CG322    CG321     9   180.000000     0.209200     6
   OG2D3    CG2O5    CG322     FGA1     9   180.000000     2.719600     2
   OG2D3    CG2O5    CG322     HGA6     9     0.000000     0.083680     3
   OG2D3    CG2O5    CG324    NG3P1     9     0.000000     1.171520     1
   OG2D3    CG2O5    CG324    NG3P1     9   180.000000     0.962320     2
   OG2D3    CG2O5    CG324    NG3P1     9     0.000000     1.715440     3
   OG2D3    CG2O5    CG324    NG3P1     9   180.000000     1.799120     6
   OG2D3    CG2O5    CG324     HGA2     9     0.000000     0.000000     3
   OG2D3    CG2O5    CG331     HGA3     9     0.000000     0.000000     3
   OG2D3    CG2O5   CG3C31    CG321     9   180.000000     3.347200     2
   OG2D3    CG2O5   CG3C31    CG321     9   180.000000     0.167360     4
   OG2D3    CG2O5   CG3C31   CG3C31     9   180.000000     1.631760     2
   OG2D3    CG2O5   CG3C31   CG3C31     9   180.000000     0.920480     3
   OG2D3    CG2O5   CG3C31   OG3C31     9   180.000000    10.585520     2
   OG2D3    CG2O5   CG3C31   OG3C31     9   180.000000     4.309520     3
   OG2D3    CG2O5   CG3C50    CG331     9   180.000000     0.167360     1
   OG2D3    CG2O5   CG3C50    CG331     9     0.000000     3.138000     2
   OG2D3    CG2O5   CG3C50    CG331     9     0.000000     4.142160     3
   OG2D3    CG2O5   CG3C50    CG331     9     0.000000     2.133840     6
   OG2D3    CG2O5   CG3C50   OG3C51     9   180.000000     2.635920     1
   OG2D3    CG2O5   CG3C50   OG3C51     9   180.000000     0.167360     2
   OG2D3    CG2O5   CG3C51    CG321     9   180.000000     0.000000     1
   OG2D3    CG2O5   CG3C51    CG321     9   180.000000     0.000000     2
   OG2D3    CG2O5   CG3C51    CG321     9     0.000000     5.648400     3
   OG2D3    CG2O5   CG3C51    CG321     9   180.000000     1.966480     6
   OG2D3    CG2O5   CG3C51    CG331     9   180.000000     1.799120     1
   OG2D3    CG2O5   CG3C51    CG331     9   180.000000     2.050160     2
   OG2D3    CG2O5   CG3C51    CG331     9     0.000000     3.723760     3
   OG2D3    CG2O5   CG3C51    CG331     9   180.000000     0.125520     6
   OG2D3    CG2O5   CG3C51   CG3C51     9   180.000000     1.464400     1
   OG2D3    CG2O5   CG3C51   CG3C51     9     0.000000     0.543920     2
   OG2D3    CG2O5   CG3C51   CG3C51     9   180.000000     1.924640     3
   OG2D3    CG2O5   CG3C51   CG3C51     9     0.000000     0.753120     6
   OG2D3    CG2O5   CG3C51   CG3C52     9   180.000000    12.761200     1
   OG2D3    CG2O5   CG3C51   CG3C52     9     0.000000     0.000000     2
   OG2D3    CG2O5   CG3C51   CG3C52     9   180.000000     9.121120     3
   OG2D3    CG2O5   CG3C51   CG3C52     9     0.000000     0.502080     6
   OG2D3    CG2O5   CG3C51     HGA1     9     0.000000     0.000000     3
   OG2D3    CG2O5   CG3C52   CG2R51     9   180.000000    14.309280     1
   OG2D3    CG2O5   CG3C52   CG2R51     9   180.000000     2.677760     2
   OG2D3    CG2O5   CG3C52   CG2RC0     9   180.000000     3.347200     1
   OG2D3    CG2O5   CG3C52   CG2RC0     9     0.000000     1.840960     2
   OG2D3    CG2O5   CG3C52   CG3C51     9   180.000000     6.276000     1
   OG2D3    CG2O5   CG3C52   CG3C51     9     0.000000     0.543920     2
   OG2D3    CG2O5   CG3C52   CG3C51     9   180.000000     2.552240     3
   OG2D3    CG2O5   CG3C52   CG3C51     9     0.000000     0.167360     6
   OG2D3    CG2O5   CG3C52   CG3C52     9     0.000000     0.000000     1
   OG2D3    CG2O5   CG3C52   CG3C52     9   180.000000    25.355040     2
   OG2D3    CG2O5   CG3C52   CG3C52     9     0.000000     5.020800     3
   OG2D3    CG2O5   CG3C52   CG3C52     9     0.000000     3.974800     6
   OG2D3    CG2O5   CG3C52   CG3RC1     9   180.000000     4.393200     1
   OG2D3    CG2O5   CG3C52   CG3RC1     9   180.000000     4.644240     2
   OG2D3    CG2O5   CG3C52   CG3RC1     9   180.000000     3.012480     3
   OG2D3    CG2O5   CG3C52   CG3RC1     9   180.000000     0.502080     6
   OG2D3    CG2O5   CG3C52   NG3C51     9     0.000000     7.740400     2
   OG2D3    CG2O5   CG3C52   NG3C51     9     0.000000     0.878640     6
   OG2D3    CG2O5   CG3C52     HGA2     9     0.000000     0.000000     3
   OG2D3    CG2O5   CG3RC1    CG321     9   180.000000     1.380720     1
   OG2D3    CG2O5   CG3RC1    CG321     9     0.000000     2.468560     2
   OG2D3    CG2O5   CG3RC1    CG321     9     0.000000     0.836800     3
   OG2D3    CG2O5   CG3RC1    CG321     9   180.000000     1.548080     6
   OG2D3    CG2O5   CG3RC1    CG331     9     0.000000     1.924640     1
   OG2D3    CG2O5   CG3RC1    CG331     9   180.000000    11.045760     2
   OG2D3    CG2O5   CG3RC1    CG331     9   180.000000     0.083680     3
   OG2D3    CG2O5   CG3RC1    CG331     9   180.000000     0.376560     6
   OG2D3    CG2O5   CG3RC1   CG3C31     9   180.000000     2.133840     2
   OG2D3    CG2O5   CG3RC1   CG3C31     9   180.000000     0.125520     3
   OG2D3    CG2O5   CG3RC1   CG3C31     9   180.000000     0.292880     4
   OG2D3    CG2O5   CG3RC1   CG3C52     9   180.000000     3.389040     2
   OG2D3    CG2O5   CG3RC1   CG3C52     9     0.000000     1.966480     4
   OG2D3    CG2O5   CG3RC1   CG3RC1     9     0.000000     0.000000     2
   OG2D3    CG2O5   CG3RC1   OG3C31     9     0.000000     0.251040     2
   OG2D3    CG2O5   CG3RC1   OG3C31     9     0.000000     1.673600     3
   OG2D3    CG2O5   CG3RC1     HGA1     9     0.000000     0.000000     3
   OG2D3   CG2R71   CG2R71    HGR71     9     0.000000     0.041840     2
   OG2D3   CG2R71   CG2RC7   CG2RC7     9     0.000000     2.092000     2
   OG2D3   CG2R71   CG2RC7   OG2R50     9     0.000000     0.000000     2
  CG3RC1   CG25C1   CG2D1O    CG331     9   180.000000    23.555920     2
  CG3RC1   CG25C1   CG2D1O    OG311     9   180.000000     6.234160     2
  CG3RC1   CG25C1   CG2R53    OG2D1     9   180.000000     5.020800     2
  CG3RC1   CG25C1   CG2R53   OG3C51     9   180.000000    17.656480     2
  CG3RC1   CG25C2   CG2D2O    CG331     9   180.000000    23.555920     2
  CG3RC1   CG25C2   CG2D2O    OG311     9   180.000000     6.234160     2
  CG3RC1   CG25C2   CG2R53    OG2D1     9   180.000000     5.020800     2
  CG3RC1   CG25C2   CG2R53   OG3C51     9   180.000000    17.656480     2
  CG3RC1    CG2D1    CG2D1     HGA4     9   180.000000    15.606320     2
  CG3RC1    CG2D1    CG331     HGA3     9     0.000000     0.669440     3
  CG3RC1    CG2D1    NG2D1    NG2S0     9   180.000000    18.325920     2
  CG3RC1   CG2DC1   CG2DC1     HGA4     9   180.000000    28.158320     2
  CG3RC1   CG2DC2   CG2DC2     HGA4     9   180.000000    28.158320     2
  CG3RC1    CG2O1    NG2S0    CG321     9   180.000000     9.037440     1
  CG3RC1    CG2O1    NG2S0    CG321     9     0.000000     0.251040     2
  CG3RC1    CG2O1    NG2S0    CG331     9     0.000000     3.389040     1
  CG3RC1    CG2O1    NG2S0    CG331     9   180.000000    10.334480     2
  CG3RC1    CG2O1    NG2S0    NG2D1     9   180.000000     0.711280     1
  CG3RC1    CG2O1    NG2S0    NG2D1     9     0.000000     0.000000     2
  CG3RC1    CG2O1    NG2S1   CG3C41     9     0.000000    69.077840     1
  CG3RC1    CG2O1    NG2S1   CG3C41     9   180.000000    30.836080     2
  CG3RC1    CG2O1    NG2S1     HGP1     9   180.000000    10.460000     2
  CG3RC1    CG2O2    OG311     HGP1     9   180.000000    11.882560     2
  CG3RC1    CG2O4   CG3C41   CG3RC1     9   180.000000    25.940800     2
  CG3RC1    CG2O4   CG3C41   CG3RC1     9   180.000000     0.669440     3
  CG3RC1    CG2O4   CG3C41     HGA2     9   180.000000     0.000000     3
  CG3RC1    CG2O5    CG2O5   CG3RC1     9   180.000000     0.083680     2
  CG3RC1    CG2O5    CG2O5    OG2D3     9   180.000000     0.083680     2
  CG3RC1    CG2O5   CG2R61   CG2R61     9     0.000000     0.000000     2
  CG3RC1    CG2O5    CG321    CG301     9   180.000000     0.209200     1
  CG3RC1    CG2O5    CG321    CG301     9     0.000000     6.443360     2
  CG3RC1    CG2O5    CG321    CG301     9   180.000000     0.543920     3
  CG3RC1    CG2O5    CG321    CG301     9     0.000000     0.836800     6
  CG3RC1    CG2O5    CG321    CG311     9     0.000000    11.924400     1
  CG3RC1    CG2O5    CG321    CG311     9     0.000000     3.932960     2
  CG3RC1    CG2O5    CG321    CG311     9   180.000000     1.673600     3
  CG3RC1    CG2O5    CG321    CG311     9   180.000000     0.418400     6
  CG3RC1    CG2O5    CG321    CG321     9     0.000000     4.184000     1
  CG3RC1    CG2O5    CG321    CG321     9     0.000000     0.753120     2
  CG3RC1    CG2O5    CG321    CG321     9   180.000000     2.343040     3
  CG3RC1    CG2O5    CG321    CG321     9   180.000000     3.765600     6
  CG3RC1    CG2O5    CG321     HGA2     9     0.000000     0.000000     3
  CG3RC1    CG2O5   CG3RC1    CG321     9   180.000000     4.895280     1
  CG3RC1    CG2O5   CG3RC1    CG321     9   180.000000     3.472720     2
  CG3RC1    CG2O5   CG3RC1    CG321     9   180.000000     1.924640     3
  CG3RC1    CG2O5   CG3RC1    CG321     9   180.000000     1.380720     6
  CG3RC1    CG2O5   CG3RC1   CG3C52     9     0.000000     5.397360     1
  CG3RC1    CG2O5   CG3RC1   CG3C52     9   180.000000     0.251040     2
  CG3RC1    CG2O5   CG3RC1   CG3C52     9   180.000000     1.673600     3
  CG3RC1    CG2O5   CG3RC1   CG3C52     9   180.000000     4.560560     4
  CG3RC1    CG2O5   CG3RC1   CG3C52     9   180.000000     0.627600     6
  CG3RC1    CG2O5   CG3RC1     HGA1     9   180.000000     0.000000     3
  CG3RC1   CG2R51   CG2R51   NG3C51     9   180.000000    53.262320     2
  CG3RC1   CG2R51   CG2R51    HGR51     9   180.000000    18.869840     2
  CG3RC1   CG2R51   CG2R51    HGR52     9   180.000000    17.656480     2
  CG3RC1   CG2R51   CG3C52   CG3C52     9     0.000000     0.292880     2
  CG3RC1   CG2R51   CG3C52   CG3C52     9     0.000000     6.527040     3
  CG3RC1   CG2R51   CG3C52     HGA2     9   180.000000     0.000000     3
  CG3RC1   CG2R51    NG2D1    NG2D1     9   180.000000    16.819680     2
  CG3RC1   CG2R51    NG2D1    NG2D1     9     0.000000     0.878640     4
  CG3RC1   CG2R52    CG321    CG301     9     0.000000     4.476880     3
  CG3RC1   CG2R52    CG321     HGA2     9     0.000000     1.799120     3
  CG3RC1   CG2R52   NG2R50   NG3C51     9   180.000000    71.128000     2
  CG3RC1   CG2R53   NG2R53   CG2R53     9   180.000000     6.108640     2
  CG3RC1   CG2R53   NG2R53    CG331     9   180.000000    13.807200     2
  CG3RC1   CG2R57   NG2R50   CG2RC0     9   180.000000    12.217280     2
  CG3RC1   CG2R57   NG2R51   CG2RC0     9     0.000000     0.125520     2
  CG3RC1   CG2R57   NG2R51     HGP1     9     0.000000     1.046000     2
  CG3RC1   CG2R57   SG2R50   CG2RC0     9     0.000000     0.041840     2
  CG3RC1   CG2R61   CG2R61    HGR61     9   180.000000     5.983120     2
  CG3RC1   CG2R61   CG2R67   CG2R61     9   180.000000    14.309280     2
  CG3RC1   CG2R61   CG2R67   CG2R67     9   180.000000    19.497440     2
  CG3RC1   CG2RC0   CG2RC0   CG3RC1     9   180.000000    25.104000     2
  CG3RC1   CG2RC0   CG2RC0    NG2S0     9   180.000000     9.665040     2
  CG3RC1   CG2RC0   CG2RC0   NG3C51     9   180.000000    12.008080     1
  CG3RC1   CG2RC0   CG2RC0   NG3C51     9   180.000000    22.049680     2
  CG3RC1   CG2RC0   CG2RC0   NG3C51     9   180.000000     7.907760     3
  CG3RC1   CG2RC0   CG2RC0   OG3C51     9   180.000000    23.472240     2
  CG3RC1   CG2RC0   CG2RC0     HGA4     9   180.000000    20.920000     2
  CG3RC1    CG301    CG311    CG301     9     0.000000     0.836800     3
  CG3RC1    CG301    CG311    CG321     9     0.000000     0.627600     3
  CG3RC1    CG301    CG311    CG331     9     0.000000     0.627600     3
  CG3RC1    CG301    CG311     HGA1     9     0.000000     0.627600     3
  CG3RC1    CG301    CG321    CG321     9     0.000000     0.627600     3
  CG3RC1    CG301    CG321     HGA2     9     0.000000     0.627600     3
  CG3RC1    CG301    CG331     HGA3     9     0.000000     0.836800     3
  CG3RC1    CG301    OG311     HGP1     9     0.000000     6.276000     1
  CG3RC1    CG301    OG311     HGP1     9   180.000000     1.255200     2
  CG3RC1    CG301    OG311     HGP1     9     0.000000     2.092000     3
  CG3RC1    CG311    CG311    OG311     9     0.000000     2.510400     1
  CG3RC1    CG311    CG311    OG311     9     0.000000     2.928800     3
  CG3RC1    CG311    CG311     HGA1     9     0.000000     0.627600     3
  CG3RC1    CG311    CG321    CG2D1     9     0.000000     0.836800     3
  CG3RC1    CG311    CG321    CG311     9     0.000000     0.627600     3
  CG3RC1    CG311    CG321    CG321     9     0.000000     0.627600     3
  CG3RC1    CG311    CG321     HGA2     9     0.000000     0.627600     3
  CG3RC1    CG311    CG324    NG3P3     9     0.000000     8.828240     3
  CG3RC1    CG311    CG324     HGA2     9     0.000000     0.627600     3
  CG3RC1    CG311    CG331     HGA3     9     0.000000     0.836800     3
  CG3RC1    CG311   CG3RC1   CG3C31     9     0.000000     3.974800     4
  CG3RC1    CG311   CG3RC1   CG3RC1     9     0.000000     0.794960     3
  CG3RC1    CG311   CG3RC1     HGA1     9     0.000000     0.000000     3
  CG3RC1    CG311    NG311    CG331     9   180.000000     8.995600     1
  CG3RC1    CG311    NG311    CG331     9     0.000000     0.000000     2
  CG3RC1    CG311    NG311    CG331     9     0.000000     2.594080     3
  CG3RC1    CG311    NG311   HGPAM1     9     0.000000     1.966480     3
  CG3RC1    CG311    NG311   HGPAM1     9   180.000000     0.292880     6
  CG3RC1    CG311    NG321   HGPAM2     9     0.000000     5.271840     3
  CG3RC1    CG311   NG3C51   CG3C52     9     0.000000     0.753120     1
  CG3RC1    CG311   NG3C51   CG3C52     9     0.000000     7.489360     2
  CG3RC1    CG311   NG3C51   CG3C52     9   180.000000     0.209200     6
  CG3RC1    CG311    OG311     HGP1     9     0.000000     6.276000     1
  CG3RC1    CG311    OG311     HGP1     9   180.000000     1.255200     2
  CG3RC1    CG311    OG311     HGP1     9     0.000000     2.092000     3
  CG3RC1    CG314    CG321    CG321     9     0.000000     0.627600     3
  CG3RC1    CG314    CG321     HGA2     9     0.000000     0.627600     3
  CG3RC1    CG314    NG3P3     HGP2     9     0.000000     0.418400     3
  CG3RC1    CG321    CG321    NG2S0     9   180.000000     3.765600     3
  CG3RC1    CG321    CG321    NG301     9   180.000000     0.251040     1
  CG3RC1    CG321    CG321    NG301     9     0.000000     1.882800     2
  CG3RC1    CG321    CG321    NG301     9     0.000000     1.673600     4
  CG3RC1    CG321    CG321    NG311     9   180.000000     0.669440     1
  CG3RC1    CG321    CG321    NG311     9     0.000000     1.631760     2
  CG3RC1    CG321    CG321    SG3O2     9     0.000000     0.794960     1
  CG3RC1    CG321    CG321    SG3O2     9   180.000000     2.217520     2
  CG3RC1    CG321    CG321    SG3O2     9   180.000000     0.041840     3
  CG3RC1    CG321    CG321     HGA2     9     0.000000     0.815880     3
  CG3RC1    CG321    CG324    NG3P2     9   180.000000     3.389040     3
  CG3RC1    CG321    CG324     HGA2     9     0.000000     0.836800     3
  CG3RC1    CG321    NG301    CG321     9     0.000000     0.251040     1
  CG3RC1    CG321    NG301    CG321     9     0.000000     1.757280     2
  CG3RC1    CG321    NG301    CG321     9     0.000000     4.895280     3
  CG3RC1    CG321    NG301    CG331     9   180.000000     1.046000     1
  CG3RC1    CG321    NG301    CG331     9     0.000000     0.334720     2
  CG3RC1    CG321    NG301    CG331     9     0.000000     0.000000     3
  CG3RC1    CG321    NG301    CG331     9   180.000000     2.133840     4
  CG3RC1    CG321    NG311    CG321     9   180.000000     1.380720     1
  CG3RC1    CG321    NG311    CG321     9   180.000000     0.711280     2
  CG3RC1    CG321    NG311    CG321     9     0.000000     0.418400     3
  CG3RC1    CG321    NG311   HGPAM1     9     0.000000     5.062640     3
  CG3RC1    CG321    OG303      PG1     9   180.000000     2.510400     1
  CG3RC1    CG321    OG303      PG1     9     0.000000     2.719600     2
  CG3RC1    CG321    OG303      PG1     9     0.000000     0.209200     3
  CG3RC1    CG321   OG3C61    CG301     9   180.000000     7.070960     1
  CG3RC1    CG321   OG3C61    CG301     9   180.000000     5.062640     2
  CG3RC1    CG321   OG3C61    CG301     9     0.000000     2.719600     3
  CG3RC1    CG321   OG3C61    CG301     9   180.000000     1.004160     4
  CG3RC1    CG321    SG311    CG321     9   180.000000     1.004160     1
  CG3RC1    CG321    SG311    CG321     9     0.000000     1.548080     3
  CG3RC1    CG321    SG3O2    CG321     9   180.000000     1.840960     1
  CG3RC1    CG321    SG3O2    CG321     9   180.000000     0.460240     2
  CG3RC1    CG321    SG3O2    CG321     9   180.000000     0.753120     3
  CG3RC1    CG321    SG3O2    CG321     9     0.000000     1.799120     4
  CG3RC1    CG321    SG3O2    OG2P1     9   180.000000     0.209200     3
  CG3RC1    CG321    SG3O2    OG2P1     9   180.000000     0.669440     6
  CG3RC1    CG324    NG3P1    CG324     9     0.000000    10.167120     3
  CG3RC1    CG324    NG3P1    CG324     9   180.000000     0.209200     4
  CG3RC1    CG324    NG3P1    CG334     9   180.000000     0.418400     3
  CG3RC1    CG324    NG3P1    CG334     9     0.000000     0.125520     4
  CG3RC1    CG324    NG3P1     HGP2     9     0.000000     2.259360     3
  CG3RC1    CG324    NG3P1     HGP2     9   180.000000     0.460240     6
  CG3RC1    CG324    NG3P2    CG324     9   180.000000     0.000000     1
  CG3RC1    CG324    NG3P2    CG324     9   180.000000     1.589920     2
  CG3RC1    CG324    NG3P2    CG324     9   180.000000     1.380720     3
  CG3RC1    CG324    NG3P2     HGP2     9     0.000000     0.711280     3
  CG3RC1   CG3C31   CG3RC1    CG2D1     9     0.000000    33.095440     2
  CG3RC1   CG3C31   CG3RC1    CG2D1     9   180.000000     0.460240     3
  CG3RC1   CG3C31   CG3RC1    CG2O1     9   180.000000     1.422560     2
  CG3RC1   CG3C31   CG3RC1    CG2O1     9   180.000000     9.916080     3
  CG3RC1   CG3C31   CG3RC1    CG2O3     9     0.000000    30.626880     2
  CG3RC1   CG3C31   CG3RC1    CG2O3     9   180.000000     2.468560     3
  CG3RC1   CG3C31   CG3RC1    CG2O5     9     0.000000     1.506240     2
  CG3RC1   CG3C31   CG3RC1    CG2O5     9     0.000000     1.171520     3
  CG3RC1   CG3C31   CG3RC1   CG2R61     9     0.000000    33.095440     2
  CG3RC1   CG3C31   CG3RC1   CG2R61     9   180.000000     0.460240     3
  CG3RC1   CG3C31   CG3RC1   CG2RC0     9     0.000000    15.606320     2
  CG3RC1   CG3C31   CG3RC1   CG2RC0     9   180.000000     0.083680     3
  CG3RC1   CG3C31   CG3RC1    CG311     9     0.000000     0.627600     3
  CG3RC1   CG3C31   CG3RC1    CG321     9     0.000000     0.627600     3
  CG3RC1   CG3C31   CG3RC1    CG324     9   180.000000     0.000000     2
  CG3RC1   CG3C31   CG3RC1    CG324     9     0.000000     0.251040     3
  CG3RC1   CG3C31   CG3RC1    CG331     9     0.000000     0.627600     3
  CG3RC1   CG3C31   CG3RC1   CG3C51     9     0.000000     0.627600     3
  CG3RC1   CG3C31   CG3RC1   CG3C52     9     0.000000     0.627600     3
  CG3RC1   CG3C31   CG3RC1   CG3RC1     9     0.000000     2.677760     2
  CG3RC1   CG3C31   CG3RC1   CG3RC1     9     0.000000     0.000000     3
  CG3RC1   CG3C31   CG3RC1   NG2R51     9     0.000000     0.627600     3
  CG3RC1   CG3C31   CG3RC1   NG2R61     9     0.000000     2.928800     3
  CG3RC1   CG3C31   CG3RC1    NG321     9     0.000000     0.000000     1
  CG3RC1   CG3C31   CG3RC1    NG321     9     0.000000     0.000000     2
  CG3RC1   CG3C31   CG3RC1    NG321     9   180.000000     8.660880     3
  CG3RC1   CG3C31   CG3RC1    NG3P3     9   180.000000     5.564720     3
  CG3RC1   CG3C31   CG3RC1   OG3R60     9   180.000000     1.799120     2
  CG3RC1   CG3C31   CG3RC1   OG3R60     9   180.000000    20.083200     3
  CG3RC1   CG3C31   CG3RC1     HGA1     9     0.000000     0.627600     3
  CG3RC1   CG3C31   CG3RC1     CTL2     9     0.000000     0.627600     3
  CG3RC1   CG3C31   CG3RC1     CTL3     9     0.000000     0.627600     3
  CG3RC1   CG3C31    NG321   HGPAM2     9     0.000000     1.338880     3
  CG3RC1   CG3C31    NG321   HGPAM2     9   180.000000     0.000000     6
  CG3RC1   CG3C31    NG3P3     HGP2     9     0.000000    12.217280     3
  CG3RC1   CG3C31    NG3P3     HGP2     9   180.000000     0.209200     6
  CG3RC1   CG3C41   CG3C41   CG3RC1     9   180.000000     1.589920     2
  CG3RC1   CG3C41   CG3C41   CG3RC1     9     0.000000     1.757280     3
  CG3RC1   CG3C41   CG3C41     FGA2     9     0.000000     1.589920     3
  CG3RC1   CG3C41   CG3C41     HGA1     9     0.000000     0.000000     3
  CG3RC1   CG3C41   CG3C41     HGA2     9     0.000000     0.000000     3
  CG3RC1   CG3C41   CG3RC1   CG2R53     9   180.000000    32.467840     2
  CG3RC1   CG3C41   CG3RC1   CG2R53     9   180.000000     3.389040     3
  CG3RC1   CG3C41   CG3RC1   CG2RC0     9     0.000000    13.137760     2
  CG3RC1   CG3C41   CG3RC1   CG2RC0     9     0.000000     0.000000     3
  CG3RC1   CG3C41   CG3RC1   CG3C41     9   180.000000    40.333760     3
  CG3RC1   CG3C41   CG3RC1   CG3C41     9   180.000000     4.727920     4
  CG3RC1   CG3C41   CG3RC1   CG3C52     9   180.000000    24.685600     3
  CG3RC1   CG3C41   CG3RC1   CG3RC1     9     0.000000     0.000000     2
  CG3RC1   CG3C41   CG3RC1   CG3RC1     9     0.000000     3.138000     3
  CG3RC1   CG3C41   CG3RC1   NG2R53     9     0.000000     2.719600     3
  CG3RC1   CG3C41   CG3RC1     HGA1     9     0.000000     0.000000     3
  CG3RC1   CG3C41    NG2S0    CG2O6     9     0.000000    11.798880     3
  CG3RC1   CG3C41    NG2S0    CG2O6     9     0.000000     0.460240     6
  CG3RC1   CG3C41    NG2S0   CG3RC1     9     0.000000     0.083680     2
  CG3RC1   CG3C41    NG2S0   CG3RC1     9     0.000000    11.506000     3
  CG3RC1   CG3C41    NG321   HGPAM2     9     0.000000    13.054080     1
  CG3RC1   CG3C41    NG321   HGPAM2     9   180.000000     0.376560     3
  CG3RC1   CG3C41    SG3O2    CG331     9   180.000000     5.690240     1
  CG3RC1   CG3C41    SG3O2    CG331     9   180.000000     4.309520     2
  CG3RC1   CG3C41    SG3O2    CG331     9   180.000000     6.150480     3
  CG3RC1   CG3C41    SG3O2    OG2P1     9     0.000000     4.351360     3
  CG3RC1   CG3C50   CG3C52   CG3C51     9     0.000000     0.627600     3
  CG3RC1   CG3C50   CG3C52   CG3C52     9     0.000000     0.627600     3
  CG3RC1   CG3C50   CG3C52   CG3RC1     9     0.000000     0.627600     3
  CG3RC1   CG3C50   CG3C52   NG3C51     9     0.000000     2.886960     3
  CG3RC1   CG3C50   CG3C52     HGA2     9     0.000000     0.627600     3
  CG3RC1   CG3C50   NG2R53   CG2R53     9   180.000000     2.468560     2
  CG3RC1   CG3C50   NG2R53   CG2R53     9     0.000000    12.928560     3
  CG3RC1   CG3C50   NG2R53     HGP1     9     0.000000     1.757280     2
  CG3RC1   CG3C50   NG2R53     HGP1     9     0.000000     2.384880     3
  CG3RC1   CG3C50   NG3C51   CG3C52     9     0.000000     0.753120     3
  CG3RC1   CG3C50    OG311     HGP1     9     0.000000     1.213360     1
  CG3RC1   CG3C50    OG311     HGP1     9     0.000000     2.594080     2
  CG3RC1   CG3C50    OG311     HGP1     9     0.000000     0.209200     3
  CG3RC1   CG3C50   OG3C51   CG3RC1     9     0.000000     0.334720     2
  CG3RC1   CG3C50   OG3C51   CG3RC1     9     0.000000     5.230000     3
  CG3RC1   CG3C51   CG3C51    OG311     9     0.000000     2.510400     1
  CG3RC1   CG3C51   CG3C51    OG311     9     0.000000     2.928800     3
  CG3RC1   CG3C51   CG3C51   OG3C51     9     0.000000     0.000000     3
  CG3RC1   CG3C51   CG3C51     HGA1     9     0.000000     0.627600     3
  CG3RC1   CG3C51   CG3C52   CG3C50     9     0.000000     0.627600     3
  CG3RC1   CG3C51   CG3C52   CG3C52     9     0.000000     0.627600     3
  CG3RC1   CG3C51   CG3C52   CG3C53     9     0.000000     1.673600     6
  CG3RC1   CG3C51   CG3C52   CG3RC1     9     0.000000     0.627600     3
  CG3RC1   CG3C51   CG3C52   OG3C51     9     0.000000     0.000000     3
  CG3RC1   CG3C51   CG3C52     HGA2     9     0.000000     0.627600     3
  CG3RC1   CG3C51   CG3RC1    CG321     9   180.000000     9.204800     2
  CG3RC1   CG3C51   CG3RC1    CG321     9     0.000000    16.736000     3
  CG3RC1   CG3C51   CG3RC1    CG321     9   180.000000     2.301200     6
  CG3RC1   CG3C51   CG3RC1    CG331     9     0.000000     0.209200     3
  CG3RC1   CG3C51   CG3RC1   CG3C51     9     0.000000     0.000000     3
  CG3RC1   CG3C51   CG3RC1   CG3C52     9     0.000000     0.000000     3
  CG3RC1   CG3C51   CG3RC1     HGA1     9     0.000000     0.627600     3
  CG3RC1   CG3C51   NG2R51   CG2R53     9   180.000000     2.092000     1
  CG3RC1   CG3C51   NG2R51   CG2RC0     9   180.000000     4.602400     1
  CG3RC1   CG3C51   NG2R61   CG2R62     9     0.000000     1.673600     4
  CG3RC1   CG3C51   NG2R61   CG2R63     9     0.000000     4.184000     3
  CG3RC1   CG3C51    NG301    CG331     9   180.000000     2.092000     1
  CG3RC1   CG3C51    NG301    CG331     9     0.000000     2.928800     3
  CG3RC1   CG3C51    NG311    CG321     9     0.000000     0.000000     3
  CG3RC1   CG3C51    NG311    CG331     9   180.000000     2.092000     1
  CG3RC1   CG3C51    NG311    CG331     9     0.000000     2.928800     3
  CG3RC1   CG3C51    NG311   HGPAM1     9     0.000000     0.836800     2
  CG3RC1   CG3C51    NG321   HGPAM2     9   180.000000     1.255200     3
  CG3RC1   CG3C51   NG3C51   NG2R50     9   180.000000    11.715200     3
  CG3RC1   CG3C51   NG3C51     HGP1     9     0.000000     2.301200     1
  CG3RC1   CG3C51   NG3C51     HGP1     9     0.000000     3.556400     3
  CG3RC1   CG3C51    OG303      PG1     9   180.000000    10.041600     1
  CG3RC1   CG3C51    OG303      PG1     9   180.000000     1.673600     2
  CG3RC1   CG3C51    OG303      PG1     9   180.000000     6.276000     3
  CG3RC1   CG3C51    OG311     HGP1     9     0.000000     6.276000     1
  CG3RC1   CG3C51    OG311     HGP1     9   180.000000     1.255200     2
  CG3RC1   CG3C51    OG311     HGP1     9     0.000000     1.338880     3
  CG3RC1   CG3C51   OG3C51   CG3C51     9   180.000000     0.418400     3
  CG3RC1   CG3C51   OG3C51   CG3C51     9     0.000000     1.799120     6
  CG3RC1   CG3C52   CG3C52   CG3RC1     9   180.000000     0.878640     3
  CG3RC1   CG3C52   CG3C52   NG3C51     9     0.000000     2.886960     3
  CG3RC1   CG3C52   CG3C52   OG3C51     9     0.000000     0.000000     3
  CG3RC1   CG3C52   CG3C52     HGA2     9     0.000000     0.815880     3
  CG3RC1   CG3C52   CG3RC1    CG2O2     9     0.000000     1.255200     2
  CG3RC1   CG3C52   CG3RC1    CG2O2     9   180.000000     5.564720     3
  CG3RC1   CG3C52   CG3RC1   CG2R57     9   180.000000     3.472720     2
  CG3RC1   CG3C52   CG3RC1   CG2R57     9     0.000000     0.167360     3
  CG3RC1   CG3C52   CG3RC1    CG301     9     0.000000     0.418400     3
  CG3RC1   CG3C52   CG3RC1    CG301     9     0.000000     2.092000     4
  CG3RC1   CG3C52   CG3RC1    CG311     9     0.000000     0.418400     3
  CG3RC1   CG3C52   CG3RC1    CG311     9     0.000000     2.092000     4
  CG3RC1   CG3C52   CG3RC1    CG321     9     0.000000     0.836800     3
  CG3RC1   CG3C52   CG3RC1   CG3C50     9     0.000000     0.000000     3
  CG3RC1   CG3C52   CG3RC1   CG3C51     9     0.000000     0.000000     3
  CG3RC1   CG3C52   CG3RC1   CG3C52     9     0.000000     0.000000     3
  CG3RC1   CG3C52   CG3RC1   CG3RC1     9     0.000000     0.627600     3
  CG3RC1   CG3C52   CG3RC1    NG2S0     9     0.000000     0.627600     3
  CG3RC1   CG3C52   CG3RC1    NG2S1     9     0.000000     0.627600     3
  CG3RC1   CG3C52   CG3RC1   OG3C51     9   180.000000    10.250800     2
  CG3RC1   CG3C52   CG3RC1   OG3C51     9     0.000000     2.133840     3
  CG3RC1   CG3C52   CG3RC1    SG311     9     0.000000     6.150480     3
  CG3RC1   CG3C52   CG3RC1     HGA1     9     0.000000     0.000000     3
  CG3RC1   CG3C52   NG2R53   CG2R53     9   180.000000     9.665040     3
  CG3RC1   CG3C52   NG2R53   CG3RC1     9     0.000000     2.886960     2
  CG3RC1   CG3C52   NG2R53   CG3RC1     9     0.000000    22.593600     3
  CG3RC1   CG3C52    NG2S0    CG2O1     9   180.000000     0.000000     3
  CG3RC1   CG3C52    NG2S0   CG3RC1     9     0.000000     0.418400     3
  CG3RC1   CG3C52   NG3C51    CG331     9     0.000000     4.267680     3
  CG3RC1   CG3C52   NG3C51   CG3C52     9     0.000000     0.753120     3
  CG3RC1   CG3C52   NG3C51     HGP1     9     0.000000     2.301200     1
  CG3RC1   CG3C52   NG3C51     HGP1     9     0.000000     3.556400     3
  CG3RC1   CG3C52   OG3C51   CG2RC0     9     0.000000     3.054320     3
  CG3RC1   CG3C52   OG3C51   CG3C52     9     0.000000     1.548080     3
  CG3RC1   CG3C52   OG3C51   CG3C52     9     0.000000     2.886960     4
  CG3RC1   CG3C52    SG311   CG3C52     9   180.000000     0.711280     1
  CG3RC1   CG3C52    SG311   CG3C52     9     0.000000     1.548080     3
  CG3RC1   CG3C52    SG311   CG3RC1     9   180.000000     0.711280     1
  CG3RC1   CG3C52    SG311   CG3RC1     9     0.000000     1.548080     3
  CG3RC1   CG3C53   CG3RC1    CG324     9     0.000000     3.765600     2
  CG3RC1   CG3C53   CG3RC1    CG324     9     0.000000     3.138000     3
  CG3RC1   CG3C53   CG3RC1    CG324     9     0.000000     0.292880     6
  CG3RC1   CG3C53   CG3RC1   CG3C52     9     0.000000     0.000000     3
  CG3RC1   CG3C53   CG3RC1     HGA1     9     0.000000     0.627600     3
  CG3RC1   CG3C53    NG3P2    CG324     9   180.000000     1.673600     1
  CG3RC1   CG3C53    NG3P2    CG324     9     0.000000     1.046000     2
  CG3RC1   CG3C53    NG3P2    CG324     9     0.000000     2.677760     3
  CG3RC1   CG3C53    NG3P2    CG334     9   180.000000     1.673600     1
  CG3RC1   CG3C53    NG3P2    CG334     9     0.000000     1.046000     2
  CG3RC1   CG3C53    NG3P2    CG334     9     0.000000     2.677760     3
  CG3RC1   CG3C53    NG3P2   CG3C54     9     0.000000     0.334720     3
  CG3RC1   CG3C53    NG3P2     HGP2     9     0.000000     0.334720     3
  CG3RC1   CG3C53    NG3P3     HGP2     9     0.000000     0.334720     3
  CG3RC1   CG3C54    NG3P2   CG3C53     9     0.000000     0.334720     3
  CG3RC1   CG3C54    NG3P2   CG3C54     9     0.000000     0.418400     3
  CG3RC1   CG3C54    NG3P2     HGP2     9     0.000000     0.334720     3
  CG3RC1   CG3RC1   CG3RC1   CG3RC1     9   180.000000     9.497680     2
  CG3RC1   CG3RC1   CG3RC1   CG3RC1     9     0.000000     2.259360     3
  CG3RC1   CG3RC1   CG3RC1   OG3C61     9     0.000000     1.840960     4
  CG3RC1   CG3RC1   CG3RC1   OG3C61     9   180.000000     0.167360     6
  CG3RC1   CG3RC1   CG3RC1     HGA1     9     0.000000     0.000000     3
  CG3RC1   CG3RC1   NG2R50   NG2R50     9     0.000000     0.000000     2
  CG3RC1   CG3RC1   NG2R50   NG2R50     9     0.000000     7.363840     3
  CG3RC1   CG3RC1   NG2R51   CG2R53     9   180.000000     4.602400     1
  CG3RC1   CG3RC1   NG2R51   CG2RC0     9   180.000000     4.602400     1
  CG3RC1   CG3RC1   NG2R52   CG2R53     9   180.000000     8.493520     2
  CG3RC1   CG3RC1   NG2R52   CG2R53     9     0.000000     2.510400     3
  CG3RC1   CG3RC1   NG2R52     HGP2     9   180.000000     3.932960     2
  CG3RC1   CG3RC1   NG2R52     HGP2     9     0.000000     0.794960     3
  CG3RC1   CG3RC1   NG2R53   CG2R53     9   180.000000     4.602400     1
  CG3RC1   CG3RC1   NG2R53    CG301     9     0.000000    18.367760     1
  CG3RC1   CG3RC1   NG2R53    CG301     9   180.000000     1.757280     2
  CG3RC1   CG3RC1   NG2R53    CG331     9     0.000000     0.209200     1
  CG3RC1   CG3RC1   NG2R53    CG331     9   180.000000     5.941280     2
  CG3RC1   CG3RC1   NG2R53    CG331     9     0.000000     4.727920     3
  CG3RC1   CG3RC1   NG2R53     HGP1     9     0.000000     3.179840     3
  CG3RC1   CG3RC1   NG2R61   CG2R62     9   180.000000     0.000000     3
  CG3RC1   CG3RC1   NG2R61   CG2R63     9   180.000000     0.836800     3
  CG3RC1   CG3RC1    NG2S0    CG2O1     9     0.000000     2.635920     2
  CG3RC1   CG3RC1    NG2S0    CG2O1     9     0.000000    13.514320     3
  CG3RC1   CG3RC1    NG2S0    CG2O6     9   180.000000     0.083680     3
  CG3RC1   CG3RC1    NG2S0    CG2O6     9     0.000000     2.719600     6
  CG3RC1   CG3RC1    NG2S0   CG2RC0     9     0.000000     2.133840     2
  CG3RC1   CG3RC1    NG2S0   CG2RC0     9     0.000000     3.932960     3
  CG3RC1   CG3RC1    NG2S0   CG3C41     9     0.000000     2.384880     2
  CG3RC1   CG3RC1    NG2S0   CG3C41     9     0.000000     8.242480     3
  CG3RC1   CG3RC1    NG301    CG321     9   180.000000     0.543920     3
  CG3RC1   CG3RC1    NG301    CG331     9     0.000000    13.598000     1
  CG3RC1   CG3RC1    NG301    CG331     9     0.000000     1.087840     3
  CG3RC1   CG3RC1    NG321   HGPAM2     9     0.000000     0.627600     1
  CG3RC1   CG3RC1    NG321   HGPAM2     9     0.000000     0.083680     6
  CG3RC1   CG3RC1   NG3C51    CG331     9     0.000000     0.000000     2
  CG3RC1   CG3RC1   NG3C51    CG331     9     0.000000     1.506240     3
  CG3RC1   CG3RC1   NG3C51   NG2R50     9   180.000000     8.702720     2
  CG3RC1   CG3RC1   NG3C51   NG2R50     9     0.000000     1.924640     3
  CG3RC1   CG3RC1    NG3N1    NG2D1     9     0.000000     8.995600     3
  CG3RC1   CG3RC1    NG3N1     HGP1     9   180.000000     1.380720     2
  CG3RC1   CG3RC1    NG3N1     HGP1     9   180.000000     0.209200     3
  CG3RC1   CG3RC1    NG3P3     HGP2     9     0.000000     1.297040     3
  CG3RC1   CG3RC1    NG3P3     HGP2     9   180.000000     0.041840     6
  CG3RC1   CG3RC1    OG311     HGP1     9   180.000000     0.878640     1
  CG3RC1   CG3RC1    OG311     HGP1     9   180.000000     1.840960     2
  CG3RC1   CG3RC1    OG311     HGP1     9     0.000000     1.087840     3
  CG3RC1   CG3RC1   OG3C51   CG2R53     9   180.000000     3.221680     2
  CG3RC1   CG3RC1   OG3C51   CG2R53     9     0.000000     1.924640     3
  CG3RC1   CG3RC1   OG3C51   CG2R53     9     0.000000     4.351360     6
  CG3RC1   CG3RC1   OG3C51   CG3C50     9   180.000000     8.953760     3
  CG3RC1   CG3RC1   OG3C51   CG3C50     9   180.000000     4.351360     6
  CG3RC1   CG3RC1   OG3C51   CG3C51     9     0.000000     0.000000     3
  CG3RC1   CG3RC1   OG3C51   CG3C52     9     0.000000     0.000000     3
  CG3RC1   CG3RC1   OG3C61    CG301     9   180.000000     4.769760     1
  CG3RC1   CG3RC1   OG3C61    CG301     9     0.000000     2.217520     3
  CG3RC1   CG3RC1   OG3C61    CG321     9   180.000000     0.669440     1
  CG3RC1   CG3RC1   OG3C61    CG321     9   180.000000     0.962320     3
  CG3RC1   CG3RC1   OG3C61    CG321     9     0.000000     2.050160     6
  CG3RC1   CG3RC1   OG3R60   CG2R61     9     0.000000     0.794960     1
  CG3RC1   CG3RC1   OG3R60   CG2R61     9     0.000000     0.125520     2
  CG3RC1   CG3RC1   OG3R60   CG2R61     9     0.000000     0.962320     3
  CG3RC1   CG3RC1    SG311    CG2N2     9   180.000000     0.794960     1
  CG3RC1   CG3RC1    SG311    CG2N2     9   180.000000     1.046000     3
  CG3RC1   CG3RC1    SG311    CG321     9     0.000000     0.543920     1
  CG3RC1   CG3RC1    SG311    CG321     9     0.000000    12.008080     3
  CG3RC1   CG3RC1    SG3O2    CG321     9   180.000000     1.548080     1
  CG3RC1   CG3RC1    SG3O2    CG321     9   180.000000     0.209200     2
  CG3RC1   CG3RC1    SG3O2    CG321     9   180.000000     0.125520     3
  CG3RC1   CG3RC1    SG3O2    CG321     9     0.000000     1.715440     4
  CG3RC1   CG3RC1    SG3O2    OG2P1     9     0.000000     1.004160     3
  CG3RC1   CG3RC1     CTL2     CTL2     9   159.600000     7.154640     1
  CG3RC1   CG3RC1     CTL2     CTL2     9   165.100000     1.548080     2
  CG3RC1   CG3RC1     CTL2     CTL2     9    47.600000     2.426720     3
  CG3RC1   NG2R50   NG2R50   NG3C51     9   180.000000   111.838320     2
  CG3RC1     CTL2     CTL2     CTL2     9   180.000000     0.669440     1
  CG3RC1     CTL2     CTL2     CTL2     9   180.000000     0.041840     2
  CG3RC1     CTL2     CTL2     CTL2     9   180.000000     0.711280     3
  CG3C50   CG25C1   CG2R52    CG331     9   180.000000    13.974560     2
  CG3C50   CG25C1   CG2R52   NG2R50     9   180.000000    40.961360     2
  CG3C50   CG25C2   CG2R52    CG331     9   180.000000    13.974560     2
  CG3C50   CG25C2   CG2R52   NG2R50     9   180.000000    40.961360     2
  CG3C50    CG2O1    NG2S0    CG2O6     9     0.000000     0.083680     2
  CG3C50    CG2O1    NG2S0    CG311     9     0.000000     0.836800     2
  CG3C50    CG2O1    NG2S0    CG321     9     0.000000     0.836800     2
  CG3C50    CG2O1    NG2S0    CG331     9   180.000000     5.815760     2
  CG3C50    CG2O1    NG2S1    CG2O6     9   180.000000     5.606560     2
  CG3C50    CG2O1    NG2S1    CG331     9     0.000000     6.694400     1
  CG3C50    CG2O1    NG2S1    CG331     9   180.000000    10.460000     2
  CG3C50    CG2O1    NG2S1     HGP1     9   180.000000    10.460000     2
  CG3C50    CG2O1      NH1      CT3     9     0.000000     6.694400     1
  CG3C50    CG2O1      NH1      CT3     9   180.000000    10.460000     2
  CG3C50    CG2O1      NH1        H     9   180.000000    10.460000     2
  CG3C50    CG2O1      NH1      CT1     9     0.000000     6.694400     1
  CG3C50    CG2O1      NH1      CT1     9   180.000000    10.460000     2
  CG3C50    CG2O1      NH1      CT2     9     0.000000     6.694400     1
  CG3C50    CG2O1      NH1      CT2     9   180.000000    10.460000     2
  CG3C50    CG2O1        N      CP1     9   180.000000    11.506000     2
  CG3C50    CG2O1        N      CP1     9     0.000000     1.255200     4
  CG3C50    CG2O1        N      CP3     9   180.000000    11.506000     2
  CG3C50    CG2O1        N      CP3     9     0.000000     1.255200     4
  CG3C50    CG2O2    OG311     HGP1     9   180.000000    13.472480     2
  CG3C50    CG2O5   CG3C52   CG3C51     9     0.000000     2.510400     1
  CG3C50    CG2O5   CG3C52   CG3C51     9     0.000000     0.292880     2
  CG3C50    CG2O5   CG3C52   CG3C51     9     0.000000     2.803280     3
  CG3C50    CG2O5   CG3C52   CG3C51     9     0.000000     0.669440     6
  CG3C50    CG2O5   CG3C52     HGA2     9     0.000000     0.000000     3
  CG3C50   CG2R51   CG2R51   CG3C50     9   180.000000    50.208000     2
  CG3C50   CG2R51   CG2R51   CG3C52     9   180.000000    50.208000     2
  CG3C50   CG2R51   CG2R51   NG2R50     9     0.000000     0.627600     2
  CG3C50   CG2R51   CG2R51   NG2R51     9   180.000000    20.920000     2
  CG3C50   CG2R51   CG2R51    HGR51     9   180.000000    12.133600     2
  CG3C50   CG2R51    CG321    SG301     9     0.000000     4.289855     2
  CG3C50   CG2R51    CG321     HGA2     9     0.000000     1.471931     3
  CG3C50   CG2R51    CG331     HGA3     9     0.000000     1.471931     3
  CG3C50   CG2R51   NG2R50   CG2R53     9   180.000000    18.451440     2
  CG3C50   CG2R51   NG2R51   CG2R53     9   180.000000    13.179600     2
  CG3C50   CG2R51   NG2R51     HGP1     9     0.000000     1.757280     2
  CG3C50   CG2R52    CG331     HGA3     9     0.000000     1.464400     3
  CG3C50   CG2R52   NG2R50   CG2RC0     9   180.000000    54.392000     2
  CG3C50   CG2R52   NG2R50   NG2R53     9   180.000000    93.345040     2
  CG3C50   CG2R53   NG2R50   CG2RC0     9   180.000000    36.358960     2
  CG3C50   CG2R53   NG2R53    CG2O1     9   180.000000     2.175680     2
  CG3C50   CG2R53   NG2R53   CG2R53     9   180.000000    25.982640     2
  CG3C50   CG2R53   NG2R53   CG2R64     9   180.000000     6.192320     2
  CG3C50   CG2R53   NG2R53   CG2RC0     9   180.000000     0.836800     2
  CG3C50   CG2R53   NG2R53    CG311     9   180.000000     0.836800     2
  CG3C50   CG2R53   NG2R53    CG331     9   180.000000     0.836800     2
  CG3C50   CG2R53   NG2R53   CG3C52     9   180.000000     1.673600     2
  CG3C50   CG2R53   NG2R53   NG2R50     9   180.000000    21.171040     2
  CG3C50   CG2R53   NG2R53   NG2R53     9   180.000000    16.652320     2
  CG3C50   CG2R53   NG2R53     HGP1     9   180.000000     5.313680     2
  CG3C50   CG2R53   OG3C51   CG3C52     9   180.000000    15.899200     2
  CG3C50   CG2R57   NG2R50   CG2R51     9   180.000000    16.401280     2
  CG3C50   CG2R57   SG2R50   CG2R51     9   180.000000    24.267200     2
  CG3C50   CG2R61   CG2R61   NG2R60     9   180.000000    14.225600     2
  CG3C50   CG2R61   CG2R61    HGR61     9   180.000000     5.104480     2
  CG3C50   CG2R61   CG2R61    HGR62     9   180.000000     8.870080     2
  CG3C50   CG2R61   NG2R60   CG2R61     9   180.000000    23.012000     2
  CG3C50   CG2R62   CG2R62   NG2R61     9   180.000000     5.020800     2
  CG3C50   CG2R62   CG2R62    HGR63     9   180.000000     9.079280     2
  CG3C50   CG2R64   NG2R62   CG2R61     9   180.000000    12.133600     2
  CG3C50   CG2RC0   CG2RC0   CG3C51     9   180.000000    25.104000     2
  CG3C50   CG2RC0   CG2RC0   CG3C52     9   180.000000    36.526320     2
  CG3C50   CG2RC0   CG2RC0   NG2R50     9     0.000000     0.041840     2
  CG3C50   CG2RC0   CG2RC0   NG2R53     9   180.000000    12.552000     2
  CG3C50   CG2RC0   CG2RC0   NG2R61     9   180.000000    34.392480     2
  CG3C50   CG2RC0   CG2RC0   NG3C51     9   180.000000    25.104000     2
  CG3C50    CG301    CG331     HGA3     9     0.000000     0.836800     3
  CG3C50    CG311    CG311     HGA1     9     0.000000     0.627600     3
  CG3C50    CG311    CG321    CG311     9     0.000000     0.836800     3
  CG3C50    CG311    CG321    CG324     9     0.000000     0.836800     3
  CG3C50    CG311    CG321     HGA2     9     0.000000     0.836800     3
  CG3C50    CG311    CG324    NG3P1     9     0.000000     3.389040     3
  CG3C50    CG311    CG324     HGA2     9     0.000000     0.836800     3
  CG3C50    CG311    OG311     HGP1     9     0.000000     6.276000     1
  CG3C50    CG311    OG311     HGP1     9   180.000000     1.255200     2
  CG3C50    CG311    OG311     HGP1     9     0.000000     2.092000     3
  CG3C50    CG321    CG321    NG301     9   180.000000     0.669440     1
  CG3C50    CG321    CG321    NG301     9     0.000000     1.631760     2
  CG3C50    CG321    CG321   OG3C61     9     0.000000     0.292880     1
  CG3C50    CG321    CG321   OG3C61     9   180.000000     1.338880     2
  CG3C50    CG321    CG321   OG3C61     9     0.000000     5.355520     3
  CG3C50    CG321    CG321   OG3C61     9   180.000000     9.079280     4
  CG3C50    CG321    CG321     HGA2     9     0.000000     2.092000     3
  CG3C50    CG321    CG324    NG3P1     9   180.000000     0.251040     3
  CG3C50    CG321    CG324    NG3P2     9   180.000000     0.585760     3
  CG3C50    CG321    CG324     HGA2     9     0.000000     2.092000     3
  CG3C50    CG321    CG331     HGA3     9     0.000000     0.000000     3
  CG3C50    CG321    NG301    CG321     9   180.000000     0.125520     1
  CG3C50    CG321    NG301    CG321     9     0.000000     1.757280     2
  CG3C50    CG321    NG301    CG321     9     0.000000     4.895280     3
  CG3C50    CG321    NG301    CG331     9     0.000000     2.552240     1
  CG3C50    CG321    NG301    CG331     9   180.000000     4.142160     2
  CG3C50    CG321    NG301    CG331     9   180.000000     4.225840     3
  CG3C50    CG321    NG301    CG331     9   180.000000     3.723760     4
  CG3C50    CG321    NG311    CG311     9     0.000000     1.715440     1
  CG3C50    CG321    NG311    CG311     9     0.000000     0.502080     2
  CG3C50    CG321    NG311    CG311     9   180.000000     3.598240     3
  CG3C50    CG321    NG311   HGPAM1     9     0.000000     3.765600     3
  CG3C50    CG321    OG311     HGP1     9     0.000000     3.514560     1
  CG3C50    CG321    OG311     HGP1     9     0.000000     1.840960     2
  CG3C50    CG321    OG311     HGP1     9     0.000000     1.506240     3
  CG3C50    CG321   OG3C61    CG321     9   180.000000     1.924640     1
  CG3C50    CG321   OG3C61    CG321     9     0.000000     0.251040     2
  CG3C50    CG321   OG3C61    CG321     9   180.000000     1.715440     3
  CG3C50    CG321   OG3C61    CG321     9   180.000000     3.974800     4
  CG3C50    CG324    NG3P1    CG324     9     0.000000    21.087360     3
  CG3C50    CG324    NG3P1    CG334     9     0.000000     0.292880     2
  CG3C50    CG324    NG3P1    CG334     9   180.000000    12.761200     3
  CG3C50    CG324    NG3P1     HGP2     9   180.000000    20.585280     3
  CG3C50    CG324    NG3P2    CG324     9   180.000000     0.000000     1
  CG3C50    CG324    NG3P2    CG324     9     0.000000     5.104480     2
  CG3C50    CG324    NG3P2    CG324     9   180.000000     1.046000     3
  CG3C50    CG324    NG3P2     HGP2     9     0.000000     6.485200     3
  CG3C50    CG324    NG3P3     HGP2     9     0.000000     0.418400     3
  CG3C50   CG3C31   CG3C31     HGA2     9   180.000000     0.000000     5
  CG3C50   CG3C50   CG3C50   CG3C52     9   180.000000     6.024960     3
  CG3C50   CG3C50   CG3C50   CG3C52     9   180.000000     2.552240     4
  CG3C50   CG3C50   CG3C50   NG2R53     9     0.000000     0.753120     2
  CG3C50   CG3C50   CG3C50   NG2R53     9     0.000000     3.932960     3
  CG3C50   CG3C50   CG3C51    CG2O1     9   180.000000     3.096160     3
  CG3C50   CG3C50   CG3C51    CG2O1     9     0.000000     1.004160     4
  CG3C50   CG3C50   CG3C51   CG3C52     9   180.000000     1.715440     3
  CG3C50   CG3C50   CG3C51     HGA1     9     0.000000     0.794960     3
  CG3C50   CG3C50   CG3C52   CG3C50     9   180.000000     1.715440     3
  CG3C50   CG3C50   CG3C52   CG3C52     9   180.000000     1.715440     3
  CG3C50   CG3C50   CG3C52     HGA2     9     0.000000     0.794960     3
  CG3C50   CG3C50   NG2R53   CG2R53     9   180.000000     7.112800     2
  CG3C50   CG3C50   NG2R53   CG2R53     9     0.000000     7.782240     3
  CG3C50   CG3C50   NG2R53     HGP1     9     0.000000     8.368000     3
  CG3C50   CG3C50    NG321   HGPAM2     9   180.000000     1.255200     3
  CG3C50   CG3C50    NG3P3     HGP2     9     0.000000     0.334720     3
  CG3C50   CG3C50    OG311     HGP1     9     0.000000     1.213360     1
  CG3C50   CG3C50    OG311     HGP1     9     0.000000     2.594080     2
  CG3C50   CG3C50    OG311     HGP1     9     0.000000     0.209200     3
  CG3C50   CG3C50   OG3C51   CG2R53     9     0.000000     1.631760     2
  CG3C50   CG3C50   OG3C51   CG2R53     9     0.000000     2.050160     3
  CG3C50   CG3C50   OG3C51   CG3C50     9     0.000000     2.092000     3
  CG3C50   CG3C50   OG3C61    CG311     9   180.000000     2.008320     1
  CG3C50   CG3C50   OG3C61    CG311     9     0.000000     0.376560     3
  CG3C50   CG3C50   OG3C61    CG311     9     0.000000     2.008320     4
  CG3C50   CG3C50   OG3C61    CG321     9     0.000000     0.167360     1
  CG3C50   CG3C50   OG3C61    CG321     9     0.000000     0.376560     3
  CG3C50   CG3C50   OG3C61    CG321     9   180.000000     2.552240     4
  CG3C50   CG3C51   CG3C51    OG311     9     0.000000     0.836800     3
  CG3C50   CG3C51   CG3C51   OG3C51     9     0.000000     0.000000     3
  CG3C50   CG3C51   CG3C51     HGA1     9     0.000000     0.794960     3
  CG3C50   CG3C51   CG3C52   CG2RC0     9   180.000000    15.480800     3
  CG3C50   CG3C51   CG3C52   CG2RC0     9     0.000000     9.414000     4
  CG3C50   CG3C51   CG3C52   CG2RC0     9   180.000000     0.962320     6
  CG3C50   CG3C51   CG3C52   CG3C50     9   180.000000     1.715440     3
  CG3C50   CG3C51   CG3C52   CG3C52     9   180.000000     1.715440     3
  CG3C50   CG3C51   CG3C52   NG3C51     9     0.000000     2.886960     3
  CG3C50   CG3C51   CG3C52     HGA2     9     0.000000     0.794960     3
  CG3C50   CG3C51   CG3C54    NG3P2     9     0.000000     0.585760     3
  CG3C50   CG3C51   CG3C54     HGA2     9     0.000000     0.794960     3
  CG3C50   CG3C51   NG3C51   CG2RC0     9   180.000000     6.066800     3
  CG3C50   CG3C51   NG3C51     HGP1     9     0.000000     2.301200     1
  CG3C50   CG3C51   NG3C51     HGP1     9     0.000000     3.556400     3
  CG3C50   CG3C51    OG311     HGP1     9     0.000000     1.213360     1
  CG3C50   CG3C51    OG311     HGP1     9     0.000000     2.594080     2
  CG3C50   CG3C51    OG311     HGP1     9     0.000000     0.209200     3
  CG3C50   CG3C51   OG3C51   CG3C51     9     0.000000     2.092000     3
  CG3C50   CG3C52   CG3C52   CG3C50     9   180.000000     1.715440     3
  CG3C50   CG3C52   CG3C52   CG3C51     9   180.000000     1.715440     3
  CG3C50   CG3C52   CG3C52   CG3C52     9   180.000000     1.715440     3
  CG3C50   CG3C52   CG3C52   NG2R50     9     0.000000     1.297040     2
  CG3C50   CG3C52   CG3C52   NG2R50     9   180.000000     1.380720     3
  CG3C50   CG3C52   CG3C52   NG2R53     9     0.000000     8.911920     3
  CG3C50   CG3C52   CG3C52    NG2S0     9     0.000000     0.585760     3
  CG3C50   CG3C52   CG3C52   NG3C51     9     0.000000     2.886960     3
  CG3C50   CG3C52   CG3C52   OG3C51     9     0.000000     0.000000     3
  CG3C50   CG3C52   CG3C52    SG311     9   180.000000     1.255200     3
  CG3C50   CG3C52   CG3C52     HGA2     9     0.000000     0.794960     3
  CG3C50   CG3C52   CG3C54    NG3P2     9     0.000000     0.585760     3
  CG3C50   CG3C52   CG3C54     HGA2     9     0.000000     0.794960     3
  CG3C50   CG3C52   CG3RC1   CG3C52     9     0.000000     0.000000     3
  CG3C50   CG3C52   CG3RC1     HGA1     9     0.000000     0.627600     3
  CG3C50   CG3C52   NG2R50   CG2R53     9   180.000000     7.949600     3
  CG3C50   CG3C52   NG2R51   CG2R53     9   180.000000     0.000000     3
  CG3C50   CG3C52   NG2R53   CG2R53     9   180.000000     9.665040     3
  CG3C50   CG3C52   NG2R53     HGP1     9     0.000000     3.179840     3
  CG3C50   CG3C52    NG2S0    CG2O1     9   180.000000     1.129680     3
  CG3C50   CG3C52    NG2S0   CG3C52     9     0.000000     0.418400     3
  CG3C50   CG3C52   NG3C51    CG331     9     0.000000     4.267680     3
  CG3C50   CG3C52   NG3C51   CG3C51     9     0.000000     0.753120     3
  CG3C50   CG3C52   NG3C51   CG3C52     9     0.000000     0.753120     3
  CG3C50   CG3C52   NG3C51    SG3O2     9   180.000000     3.221680     3
  CG3C50   CG3C52   NG3C51    SG3O2     9     0.000000    17.991200     4
  CG3C50   CG3C52   NG3C51     HGP1     9     0.000000     2.301200     1
  CG3C50   CG3C52   NG3C51     HGP1     9     0.000000     3.556400     3
  CG3C50   CG3C52   OG3C51   CG3C51     9     0.000000     2.092000     3
  CG3C50   CG3C52   OG3C51   CG3C52     9     0.000000     2.092000     3
  CG3C50   CG3C52    SG311   CG3C52     9   180.000000     0.711280     1
  CG3C50   CG3C52    SG311   CG3C52     9     0.000000     1.548080     3
  CG3C50   CG3C53    NG3P3     HGP2     9     0.000000     0.334720     3
  CG3C50   CG3C54   NG2R52    CG2O1     9   180.000000    19.706640     2
  CG3C50   CG3C54   NG2R52    CG2O1     9   180.000000     3.138000     3
  CG3C50   CG3C54   NG2R52   CG2R53     9     0.000000     1.255200     2
  CG3C50   CG3C54   NG2R52   CG2R53     9     0.000000     2.175680     3
  CG3C50   CG3C54   NG2R52     HGP2     9     0.000000     0.083680     2
  CG3C50   CG3C54   NG2R52     HGP2     9     0.000000     2.803280     3
  CG3C50   CG3C54    NG3P2   CG3C54     9     0.000000     0.418400     3
  CG3C50   CG3C54    NG3P2     HGP2     9     0.000000     0.334720     3
  CG3C50   CG3RC1   CG3RC1   CG3C51     9     0.000000    16.736000     3
  CG3C50   NG2R50   NG2R50   CG3C52     9   180.000000    44.601440     2
  CG3C50   NG3C51    SG3O2    CG331     9     0.000000     6.903600     2
  CG3C50   NG3C51    SG3O2    CG331     9   180.000000     2.259360     3
  CG3C50   NG3C51    SG3O2    CG331     9   180.000000     2.510400     6
  CG3C50   NG3C51    SG3O2    OG2P1     9     0.000000     0.962320     3
  CG3C50   NG3C51    SG3O2    OG2P1     9   180.000000     0.209200     6
  CG2R52   CG25C1   CG3C50    CG321     9     0.000000     2.175680     3
  CG2R52   CG25C1   CG3C50   OG3C51     9   180.000000     0.502080     1
  CG2R52   CG25C1   CG3C50   OG3C51     9   180.000000    13.054080     2
  CG2R52   CG25C1   CG3C50   OG3C51     9   180.000000     0.502080     3
  CG2R52   CG25C2   CG3C50    CG321     9     0.000000     2.175680     3
  CG2R52   CG25C2   CG3C50   OG3C51     9   180.000000     0.502080     1
  CG2R52   CG25C2   CG3C50   OG3C51     9   180.000000    13.054080     2
  CG2R52   CG25C2   CG3C50   OG3C51     9   180.000000     0.502080     3
  CG2R52   CG2DC1   CG2DC1     HGA4     9   180.000000    22.049680     2
  CG2R52   CG2DC2   CG2DC2     HGA4     9   180.000000    22.049680     2
  CG2R52    CG2O1    NG2S1    CG311     9     0.000000     6.694400     1
  CG2R52    CG2O1    NG2S1    CG311     9   180.000000    16.736000     2
  CG2R52    CG2O1    NG2S1     HGP1     9   180.000000     4.184000     2
  CG2R52    CG2O2    OG311     HGP1     9   180.000000     4.058480     1
  CG2R52    CG2O2    OG311     HGP1     9   180.000000    11.296800     2
  CG2R52    CG2O2    OG311     HGP1     9   180.000000     0.209200     3
  CG2R52    CG2O2    OG311     HGP1     9   180.000000     1.046000     6
  CG2R52    CG2O5    CG321    CG321     9     0.000000     1.673600     1
  CG2R52    CG2O5    CG321    CG321     9   180.000000     0.711280     2
  CG2R52    CG2O5    CG321    CG321     9   180.000000     0.543920     3
  CG2R52    CG2O5    CG321    CG321     9   180.000000     0.418400     6
  CG2R52    CG2O5    CG321     HGA2     9     0.000000     0.418400     3
  CG2R52   CG2R51   CG2R51   CG2RC0     9   180.000000     8.368000     2
  CG2R52   CG2R51   CG2R51    CG321     9   180.000000    17.991200     2
  CG2R52   CG2R51   CG2R51    CG324     9   180.000000    17.991200     2
  CG2R52   CG2R51   CG2R51    CG331     9   180.000000     9.372160     2
  CG2R52   CG2R51   CG2R51   CG3C51     9   180.000000    27.614400     2
  CG2R52   CG2R51   CG2R51   CG3C52     9   180.000000    27.614400     2
  CG2R52   CG2R51   CG2R51   CG3C54     9   180.000000    31.380000     2
  CG2R52   CG2R51   CG2R51   NG2R50     9   180.000000    35.564000     2
  CG2R52   CG2R51   CG2R51   NG2R51     9   180.000000    50.208000     2
  CG2R52   CG2R51   CG2R51   OG2R50     9   180.000000    39.748000     2
  CG2R52   CG2R51   CG2R51   OG3C51     9   180.000000   104.307120     2
  CG2R52   CG2R51   CG2R51   SG2R50     9   180.000000    35.564000     2
  CG2R52   CG2R51   CG2R51    SG3O2     9   180.000000     6.694400     2
  CG2R52   CG2R51   CG2R51    HGR51     9   180.000000    10.878400     2
  CG2R52   CG2R51   CG2R51    HGR52     9   180.000000     6.276000     2
  CG2R52   CG2R51   CG2R53   NG2R53     9     0.000000     5.899440     2
  CG2R52   CG2R51   CG2R53    OG2D1     9   180.000000     5.020800     2
  CG2R52   CG2R51   CG2R57   CG3C51     9     0.000000     0.669440     2
  CG2R52   CG2R51   CG2R57   NG2R51     9   180.000000    20.794480     2
  CG2R52   CG2R51   CG2R61   CG2R61     9   180.000000     1.422560     2
  CG2R52   CG2R51   CG2R61   CG2R61     9     0.000000     0.711280     4
  CG2R52   CG2R51   CG2R61   CG2R61     9     0.000000     1.380720     6
  CG2R52   CG2R51   CG2R61   CG2R62     9   180.000000     2.133840     2
  CG2R52   CG2R51   CG2R61   CG2R62     9   180.000000     1.799120     4
  CG2R52   CG2R51   CG2RC0   CG2R61     9   180.000000    12.552000     2
  CG2R52   CG2R51   CG2RC0   CG2R63     9   180.000000    12.552000     2
  CG2R52   CG2R51   CG2RC0   NG2RC0     9   180.000000    50.208000     2
  CG2R52   CG2R51    CG301    CG331     9     0.000000     2.384880     1
  CG2R52   CG2R51    CG301    CG331     9   180.000000     0.460240     2
  CG2R52   CG2R51    CG301    CG331     9     0.000000     0.502080     3
  CG2R52   CG2R51    CG301    CG331     9     0.000000     0.292880     6
  CG2R52   CG2R51    CG301    NG321     9   180.000000     1.548080     1
  CG2R52   CG2R51    CG301    NG321     9   180.000000     1.548080     2
  CG2R52   CG2R51    CG301    NG321     9   180.000000     1.924640     4
  CG2R52   CG2R51    CG311    CG302     9   180.000000     0.418400     1
  CG2R52   CG2R51    CG311    CG302     9     0.000000     0.125520     2
  CG2R52   CG2R51    CG311    CG302     9     0.000000     2.175680     3
  CG2R52   CG2R51    CG311    CG321     9     0.000000     0.836800     1
  CG2R52   CG2R51    CG311    CG321     9     0.000000     1.129680     2
  CG2R52   CG2R51    CG311    CG321     9     0.000000     0.000000     3
  CG2R52   CG2R51    CG311    NG311     9     0.000000     0.836800     1
  CG2R52   CG2R51    CG311    NG311     9     0.000000     1.129680     2
  CG2R52   CG2R51    CG311     HGA1     9     0.000000     0.000000     3
  CG2R52   CG2R51    CG314    CG331     9     0.000000     0.836800     1
  CG2R52   CG2R51    CG314    CG331     9     0.000000     1.129680     2
  CG2R52   CG2R51    CG314    CG331     9     0.000000     0.000000     3
  CG2R52   CG2R51    CG314    NG3P3     9     0.000000     0.292880     1
  CG2R52   CG2R51    CG314    NG3P3     9     0.000000     0.000000     2
  CG2R52   CG2R51    CG314     HGA1     9     0.000000     0.000000     3
  CG2R52   CG2R51    CG321    CG2O1     9   180.000000     0.000000     1
  CG2R52   CG2R51    CG321    CG2O1     9     0.000000     0.125520     2
  CG2R52   CG2R51    CG321    CG2O5     9   180.000000    22.635440     1
  CG2R52   CG2R51    CG321    CG2O5     9     0.000000     1.715440     2
  CG2R52   CG2R51    CG321    CG311     9     0.000000     0.836800     1
  CG2R52   CG2R51    CG321    CG311     9     0.000000     1.129680     2
  CG2R52   CG2R51    CG321    CG321     9     0.000000     0.836800     1
  CG2R52   CG2R51    CG321    CG321     9     0.000000     1.129680     2
  CG2R52   CG2R51    CG321    NG301     9     0.000000     0.836800     1
  CG2R52   CG2R51    CG321    NG301     9     0.000000     1.129680     2
  CG2R52   CG2R51    CG321    NG311     9     0.000000     0.836800     1
  CG2R52   CG2R51    CG321    NG311     9     0.000000     1.129680     2
  CG2R52   CG2R51    CG321    SG311     9   180.000000     6.024960     1
  CG2R52   CG2R51    CG321    SG311     9   180.000000     0.502080     2
  CG2R52   CG2R51    CG321    SG3O2     9     0.000000     0.543920     1
  CG2R52   CG2R51    CG321    SG3O2     9     0.000000     5.522880     2
  CG2R52   CG2R51    CG321    SG3O2     9     0.000000     0.376560     6
  CG2R52   CG2R51    CG321     HGA2     9     0.000000     0.000000     3
  CG2R52   CG2R51    CG324    NG3P1     9     0.000000     2.510400     2
  CG2R52   CG2R51    CG324    NG3P2     9     0.000000     2.510400     2
  CG2R52   CG2R51    CG324     HGA2     9     0.000000     0.000000     3
  CG2R52   CG2R51    CG331     HGA3     9     0.000000     0.000000     3
  CG2R52   CG2R51   CG3C31   CG3C31     9   180.000000     0.125520     1
  CG2R52   CG2R51   CG3C31   CG3C31     9     0.000000     0.627600     2
  CG2R52   CG2R51   CG3C31   CG3C31     9     0.000000     0.167360     4
  CG2R52   CG2R51   CG3C31     HGA1     9     0.000000     0.000000     3
  CG2R52   CG2R51   CG3C51    CG2O2     9   180.000000     7.531200     3
  CG2R52   CG2R51   CG3C51    CG321     9     0.000000     1.255200     3
  CG2R52   CG2R51   CG3C51    CG321     9     0.000000     0.251040     6
  CG2R52   CG2R51   CG3C51   CG3C52     9   180.000000     3.807440     2
  CG2R52   CG2R51   CG3C51   CG3C52     9   180.000000     0.753120     3
  CG2R52   CG2R51   CG3C51   CG3C52     9   180.000000     0.083680     6
  CG2R52   CG2R51   CG3C51     HGA1     9     0.000000     0.000000     3
  CG2R52   CG2R51   CG3C52   CG2RC0     9   180.000000     6.276000     3
  CG2R52   CG2R51   CG3C52   CG3C52     9   180.000000     0.209200     3
  CG2R52   CG2R51   CG3C52   NG3C51     9   180.000000     2.928800     3
  CG2R52   CG2R51   CG3C52    SG311     9   180.000000     4.016640     3
  CG2R52   CG2R51   CG3C52     HGA2     9     0.000000     0.000000     3
  CG2R52   CG2R51    NG311    CG311     9     0.000000     0.000000     2
  CG2R52   CG2R51    NG311    CG311     9   180.000000     0.502080     4
  CG2R52   CG2R51    NG311   HGPAM1     9   180.000000     2.845120     2
  CG2R52   CG2R51   OG2R50   CG2RC0     9   180.000000    35.564000     2
  CG2R52   CG2R51   SG2R50   CG2R53     9   180.000000    35.564000     2
  CG2R52   CG2R51    SG3O2    NG321     9   180.000000    13.639840     1
  CG2R52   CG2R51    SG3O2    NG321     9   180.000000     1.004160     2
  CG2R52   CG2R51    SG3O2    OG2P1     9     0.000000     0.000000     6
  CG2R52   CG2R52   CG2R61   CG2R61     9   180.000000     3.849280     2
  CG2R52   CG2R52   CG2R61   CG2R61     9   180.000000     1.840960     4
  CG2R52   CG2R52    CG311    CG321     9     0.000000     0.836800     1
  CG2R52   CG2R52    CG311    CG321     9     0.000000     1.129680     2
  CG2R52   CG2R52    CG311    CG321     9     0.000000     0.000000     3
  CG2R52   CG2R52    CG311    NG2O1     9   180.000000     7.573040     1
  CG2R52   CG2R52    CG311    NG2O1     9   180.000000     8.535360     2
  CG2R52   CG2R52    CG311    NG2O1     9     0.000000     0.794960     3
  CG2R52   CG2R52    CG311     HGA1     9     0.000000     0.000000     3
  CG2R52   CG2R52    CG321    CG321     9     0.000000     0.836800     1
  CG2R52   CG2R52    CG321    CG321     9     0.000000     1.129680     2
  CG2R52   CG2R52    CG321    CG321     9     0.000000     0.000000     3
  CG2R52   CG2R52    CG321     HGA2     9     0.000000     0.000000     3
  CG2R52   CG2R52    CG331     HGA3     9     0.000000     0.000000     3
  CG2R52   CG2R52   NG2R50   CG2R53     9   180.000000    58.576000     2
  CG2R52   CG2R52   NG2R50   NG2R51     9   180.000000    50.208000     2
  CG2R52   CG2R52   NG2R50   OG2R50     9   180.000000    50.208000     2
  CG2R52   CG2R57   CG2R57   NG2R50     9   180.000000     3.054320     2
  CG2R52   CG2R57   CG2R57   NG2R50     9     0.000000     1.631760     3
  CG2R52   CG2R57   CG2R57   NG2R50     9     0.000000     2.050160     4
  CG2R52   CG2R57   CG2R57   NG2R51     9   180.000000     9.372160     2
  CG2R52   CG2R57   CG2R57   NG2R51     9   180.000000     5.146320     3
  CG2R52   CG2R57   CG2R57   NG2R51     9   180.000000     2.510400     4
  CG2R52   CG2R57   CG3C53   CG3C52     9   180.000000     0.167360     3
  CG2R52   CG2R57   CG3C53    NG3P2     9   180.000000     9.330320     1
  CG2R52   CG2R57   CG3C53    NG3P2     9     0.000000     6.527040     2
  CG2R52   CG2R57   CG3C53    NG3P2     9     0.000000     3.556400     3
  CG2R52   CG2R57   CG3C53     HGA1     9     0.000000     0.000000     3
  CG2R52   CG2R57   NG2R50   OG2R50     9   180.000000    25.187680     2
  CG2R52   CG2R57   NG2R57   CG2R53     9   180.000000     1.338880     2
  CG2R52   CG2R57   NG2R57   CG2R53     9     0.000000     0.502080     4
  CG2R52   CG2R57   NG2R57   CG2R53     9     0.000000     0.041840     6
  CG2R52   CG2R57   NG2R57   NG2R50     9   180.000000     0.962320     2
  CG2R52   CG2R57   NG2R57   NG2R50     9   180.000000     1.004160     4
  CG2R52   CG2R57   NG2R57   NG2R50     9   180.000000     1.213360     6
  CG2R52   CG2R61   CG2R61   CG2R61     9   180.000000    12.552000     2
  CG2R52   CG2R61   CG2R61   CG2R66     9   180.000000    12.552000     2
  CG2R52   CG2R61   CG2R61   NG2R60     9   180.000000    18.200400     2
  CG2R52   CG2R61   CG2R61    NG2S1     9   180.000000    11.631520     2
  CG2R52   CG2R61   CG2R61    NG2S3     9   180.000000     8.953760     2
  CG2R52   CG2R61   CG2R61    HGR61     9   180.000000     8.368000     2
  CG2R52   CG2R61   CG2R61    HGR62     9   180.000000     8.368000     2
  CG2R52   CG2R61   CG2R64   NG2R61     9     0.000000     0.292880     2
  CG2R52   CG2R61   CG2R64   NG2R62     9   180.000000    23.932480     2
  CG2R52   CG2R61   NG2R62   NG2R62     9   180.000000    17.949360     2
  CG2R52   CG2R62   CG2R62   CG2R62     9   180.000000    16.150240     2
  CG2R52   CG2R62   CG2R62    HGR62     9   180.000000    10.250800     2
  CG2R52   CG2R62   NG2R61   CG2R63     9   180.000000     6.652560     2
  CG2R52   CG2R62   NG2R61    CG331     9     0.000000     0.125520     2
  CG2R52   CG2RC0   CG2RC0   CG2R61     9   180.000000     6.276000     2
  CG2R52   CG2RC0   CG2RC0   CG2R64     9   180.000000     6.276000     2
  CG2R52   CG2RC0   CG2RC0   CG2R66     9   180.000000     6.276000     2
  CG2R52   CG2RC0   CG2RC0   NG2R50     9     0.000000     0.000000     2
  CG2R52   CG2RC0   CG2RC0   NG2R51     9   180.000000    50.208000     2
  CG2R52   CG2RC0   CG2RC0   NG2R60     9   180.000000    14.644000     2
  CG2R52   CG2RC0   CG2RC0   NG2R61     9   180.000000     8.660880     2
  CG2R52   CG2RC0   CG2RC0   NG2R62     9   180.000000    14.644000     2
  CG2R52   CG2RC0   CG2RC0   OG2R50     9   180.000000    35.564000     2
  CG2R52   CG2RC0   CG2RC0   SG2R50     9   180.000000    35.564000     2
  CG2R52   CG2RC0   CG2RC0    SG3O2     9   180.000000     7.029120     2
  CG2R52   CG2RC0   NG2R62   CG2R64     9   180.000000    10.627360     2
  CG2R52    CG301    CG321    CG321     9     0.000000     0.167360     3
  CG2R52    CG301    CG321     HGA2     9     0.000000     0.836800     3
  CG2R52    CG301    CG324    NG3P2     9     0.000000     0.167360     3
  CG2R52    CG301    CG324     HGA2     9     0.000000     0.000000     3
  CG2R52    CG301    CG331     HGA3     9     0.000000     0.167360     3
  CG2R52    CG311    CG321    CG321     9     0.000000     0.167360     3
  CG2R52    CG311    CG321     HGA2     9     0.000000     0.836800     3
  CG2R52    CG311    NG2O1    OG2N1     9   180.000000     3.681920     2
  CG2R52    CG311    NG2O1    OG2N1     9     0.000000     0.376560     4
  CG2R52    CG311    NG2O1    OG2N1     9   180.000000     0.000000     6
  CG2R52    CG311    NG321   HGPAM2     9     0.000000     2.426720     1
  CG2R52    CG311    NG321   HGPAM2     9     0.000000     2.970640     3
  CG2R52    CG311    OG301    CG331     9   180.000000     5.522880     1
  CG2R52    CG311    OG301    CG331     9   180.000000     0.920480     2
  CG2R52    CG311    OG301    CG331     9     0.000000     1.882800     3
  CG2R52    CG312    CG321    NG311     9     0.000000     0.794960     3
  CG2R52    CG312    CG321    NG311     9   180.000000     2.092000     4
  CG2R52    CG312    CG321     HGA2     9     0.000000     0.000000     3
  CG2R52    CG314    CG321    CG321     9     0.000000     0.167360     3
  CG2R52    CG314    CG321     HGA2     9     0.000000     0.836800     3
  CG2R52    CG314    NG3P3     HGP2     9     0.000000     0.000000     3
  CG2R52    CG321    CG321    CG321     9     0.000000     0.167360     3
  CG2R52    CG321    CG321    NG301     9     0.000000     0.167360     3
  CG2R52    CG321    CG321    SG311     9     0.000000     0.000000     1
  CG2R52    CG321    CG321    SG311     9     0.000000     1.338880     2
  CG2R52    CG321    CG321    SG311     9     0.000000     2.259360     3
  CG2R52    CG321    CG321     HGA2     9     0.000000     0.836800     3
  CG2R52    CG321    CG324    NG3P1     9     0.000000     0.836800     3
  CG2R52    CG321    CG324     HGA2     9     0.000000     0.836800     3
  CG2R52    CG321    NG301    CG321     9   180.000000     5.941280     1
  CG2R52    CG321    NG301    CG321     9     0.000000     3.430880     2
  CG2R52    CG321    NG301    CG321     9     0.000000     4.267680     3
  CG2R52    CG321    NG301    CG331     9   180.000000     5.941280     1
  CG2R52    CG321    NG301    CG331     9     0.000000     3.430880     2
  CG2R52    CG321    NG301    CG331     9     0.000000     4.267680     3
  CG2R52    CG321    OG311     HGP1     9     0.000000     5.104480     1
  CG2R52    CG321    OG311     HGP1     9     0.000000     2.468560     2
  CG2R52    CG321    OG311     HGP1     9     0.000000     2.510400     3
  CG2R52    CG321    SG311    CG311     9   180.000000     4.560560     1
  CG2R52    CG321    SG311    CG311     9     0.000000     3.138000     3
  CG2R52   CG3C31   CG3C31   CG3C31     9   180.000000     6.443360     3
  CG2R52   CG3C31   CG3C31   CG3C31     9     0.000000     0.000000     6
  CG2R52   CG3C31   CG3C31     HGA2     9   180.000000     0.000000     5
  CG2R52   CG3C41   CG3C41   CG3C41     9   180.000000    45.940320     2
  CG2R52   CG3C41   CG3C41   CG3C41     9     0.000000    18.451440     3
  CG2R52   CG3C41   CG3C41     HGA2     9     0.000000     0.000000     3
  CG2R52   CG3C52   CG3C52   CG3C51     9     0.000000     0.418400     3
  CG2R52   CG3C52   CG3C52   CG3C51     9   180.000000     1.757280     6
  CG2R52   CG3C52   CG3C52   CG3C52     9   180.000000     1.422560     3
  CG2R52   CG3C52   CG3C52   CG3RC1     9   180.000000     6.401520     3
  CG2R52   CG3C52   CG3C52   CG3RC1     9   180.000000     1.506240     4
  CG2R52   CG3C52   CG3C52   NG3C51     9     0.000000     0.000000     3
  CG2R52   CG3C52   CG3C52     HGA2     9     0.000000     4.184000     3
  CG2R52   CG3C52   NG3C51   CG2R64     9     0.000000     1.924640     2
  CG2R52   CG3C52   NG3C51   CG2R64     9     0.000000     6.317840     3
  CG2R52   CG3C52   NG3C51   CG3C52     9   180.000000     8.577200     3
  CG2R52   CG3C54   NG2R52   CG2R53     9   180.000000    11.715200     2
  CG2R52   CG3C54   NG2R52    CG324     9   180.000000     3.221680     2
  CG2R52   NG2R50   NG2R50   CG2RC0     9   180.000000    42.969680     2
  CG2R52   NG2R50   NG2R51    CG2O6     9     0.000000     0.000000     2
  CG2R52   NG2R50   NG2R51   CG2R51     9   180.000000    50.208000     2
  CG2R52   NG2R50   NG2R51   CG2R57     9   180.000000    50.208000     2
  CG2R52   NG2R50   NG2R51   CG2R61     9   180.000000     5.857600     2
  CG2R52   NG2R50   NG2R51   CG2R64     9   180.000000     0.836800     2
  CG2R52   NG2R50   NG2R51   CG2RC0     9   180.000000    35.564000     2
  CG2R52   NG2R50   NG2R51    CG311     9   180.000000     5.857600     2
  CG2R52   NG2R50   NG2R51    CG321     9   180.000000     5.857600     2
  CG2R52   NG2R50   NG2R51    CG331     9   180.000000     5.857600     2
  CG2R52   NG2R50   NG2R51   CG3C51     9   180.000000    26.484720     2
  CG2R52   NG2R50   NG2R51   CG3C52     9   180.000000    16.401280     2
  CG2R52   NG2R50   NG2R51   NG2R50     9   180.000000    39.748000     2
  CG2R52   NG2R50   NG2R51     HGP1     9   180.000000     5.857600     2
  CG2R52   NG2R50   NG2R53   CG2R53     9     0.000000     0.000000     2
  CG2R52   NG2R50   NG2R53    CG331     9   180.000000    13.890880     2
  CG2R52   NG2R50   NG2R53     HGP1     9   180.000000     8.744560     2
  CG2R52   NG2R50   NG2RC0   CG2R61     9   180.000000    25.355040     2
  CG2R52   NG2R50   NG2RC0   CG2RC0     9   180.000000    38.325440     2
  CG2R52   NG2R50   NG2RC0   NG2R62     9   180.000000    18.660640     2
  CG2R52   NG2R50    NG2S0    CG2O6     9   180.000000     0.083680     1
  CG2R52   NG2R50    NG2S0    CG2O6     9     0.000000     0.669440     2
  CG2R52   NG2R50    NG2S0   CG3C50     9     0.000000     7.531200     1
  CG2R52   NG2R50    NG2S0   CG3C50     9     0.000000     0.669440     2
  CG2R52   NG2R50   NG3C51   CG3C51     9   180.000000     2.092000     2
  CG2R52   NG2R50   NG3C51   CG3C52     9   180.000000     2.092000     2
  CG2R52   NG2R50   NG3C51     HGP1     9     0.000000     1.046000     3
  CG2R52   NG2R50   OG2R50   CG2R51     9   180.000000    50.208000     2
  CG2R52   NG2R50   OG2R50   CG2RC0     9   180.000000    50.208000     2
  CG2R52   NG2R50   OG2R50   NG2R50     9   180.000000    42.342080     2
  CG2R52   NG2R50   OG3C51   CG3C50     9   180.000000    47.111840     2
  CG2R52   NG2R50   SG2R50   CG2R51     9   180.000000    37.656000     2
  CG2R52   NG2R50   SG2R50   CG2RC0     9   180.000000    37.656000     2
  CG2R52   NG2R50    SG3O2   CG2RC0     9   180.000000     8.535360     2
  CG2R52   NG2R50    SG3O2   CG2RC0     9   180.000000     0.000000     3
  CG2R52   NG2R50    SG3O2    OG2P1     9     0.000000     4.853440     2
  CG2R52   NG2R50    SG3O2    OG2P1     9   180.000000     0.083680     3
   CG301    CG2D1    CG2D1    CG321     9   180.000000     1.882800     1
   CG301    CG2D1    CG2D1    CG321     9   180.000000    35.564000     2
   CG301    CG2D1    CG2D1    CG331     9   180.000000    41.840000     2
   CG301    CG2D1    CG2D1     HGA4     9   180.000000     4.184000     2
   CG301    CG2D1   CG2D1O    CG331     9   180.000000    30.585040     2
   CG301    CG2D1   CG2D1O    NG2S0     9   180.000000     3.556400     2
   CG301    CG2D1   CG2D1O    OG301     9   180.000000    12.552000     2
   CG301    CG2D1   CG2D1O     HGA4     9   180.000000    25.104000     2
   CG301    CG2D1   CG2D2O    CG331     9   180.000000    30.585040     2
   CG301    CG2D1   CG2D2O    NG2S0     9   180.000000     3.556400     2
   CG301    CG2D1   CG2D2O    OG301     9   180.000000    12.552000     2
   CG301    CG2D1   CG2D2O     HGA4     9   180.000000    25.104000     2
   CG301    CG2D1    CG321    CG311     9   180.000000     1.255200     3
   CG301    CG2D1    CG321    CG321     9   180.000000     1.255200     3
   CG301    CG2D1    CG321     HGA2     9     0.000000     0.125520     3
   CG301    CG2D1    CG331     HGA3     9     0.000000     0.669440     3
   CG301    CG2D1    NG2D1   OG3R60     9   180.000000    13.807200     2
   CG301   CG2DC1   CG2DC1    CG321     9   180.000000    41.840000     2
   CG301   CG2DC1   CG2DC1    CG331     9   180.000000    41.840000     2
   CG301   CG2DC1   CG2DC1     HGA4     9   180.000000    21.756800     2
   CG301   CG2DC1   CG2DC2   CG2DC2     9     0.000000     3.765600     1
   CG301   CG2DC1   CG2DC2   CG2DC2     9   180.000000     8.786400     2
   CG301   CG2DC1   CG2DC2   CG2DC2     9     0.000000     0.920480     3
   CG301   CG2DC1   CG2DC2   CG2DC2     9   180.000000     1.046000     5
   CG301   CG2DC1   CG2DC2   CG2DC2     9     0.000000     0.418400     6
   CG301   CG2DC1   CG2DC2   CG2DC3     9     0.000000     3.765600     1
   CG301   CG2DC1   CG2DC2   CG2DC3     9   180.000000     8.786400     2
   CG301   CG2DC1   CG2DC2   CG2DC3     9     0.000000     0.920480     3
   CG301   CG2DC1   CG2DC2   CG2DC3     9   180.000000     1.046000     5
   CG301   CG2DC1   CG2DC2   CG2DC3     9     0.000000     0.418400     6
   CG301   CG2DC1   CG2DC2     HGA4     9   180.000000     4.184000     2
   CG301   CG2DC1   CG2R61   CG2R61     9     0.000000     2.092000     2
   CG301   CG2DC1   CG2R61   CG2R61     9   180.000000     0.669440     4
   CG301   CG2DC1   CG2R61   CG2R61     9   180.000000     0.251040     6
   CG301   CG2DC1    CG301    CG1N1     9   180.000000     1.004160     2
   CG301   CG2DC1    CG301    CG1N1     9     0.000000     1.338880     3
   CG301   CG2DC1    CG301    CG311     9     0.000000    11.045760     3
   CG301   CG2DC1    CG301    CG321     9   180.000000     4.895280     3
   CG301   CG2DC1    CG301    CG321     9     0.000000     1.548080     6
   CG301   CG2DC1    CG301    CG331     9     0.000000     4.644240     3
   CG301   CG2DC1    CG301    CG331     9   180.000000     1.380720     6
   CG301   CG2DC1    CG321    CG321     9     0.000000     0.794960     3
   CG301   CG2DC1    CG321     HGA2     9     0.000000     0.794960     3
   CG301   CG2DC1    NG2D1    CG321     9   180.000000    38.618320     2
   CG301   CG2DC2   CG2DC2    CG321     9   180.000000    41.840000     2
   CG301   CG2DC2   CG2DC2    CG331     9   180.000000    41.840000     2
   CG301   CG2DC2   CG2DC2     HGA4     9   180.000000    21.756800     2
   CG301   CG2DC2   CG2R61   CG2R61     9     0.000000     2.092000     2
   CG301   CG2DC2   CG2R61   CG2R61     9   180.000000     0.669440     4
   CG301   CG2DC2   CG2R61   CG2R61     9   180.000000     0.251040     6
   CG301   CG2DC2    CG301    CG1N1     9   180.000000     1.004160     2
   CG301   CG2DC2    CG301    CG1N1     9     0.000000     1.338880     3
   CG301   CG2DC2    CG301    CG311     9     0.000000    11.045760     3
   CG301   CG2DC2    CG301    CG321     9   180.000000     4.895280     3
   CG301   CG2DC2    CG301    CG321     9     0.000000     1.548080     6
   CG301   CG2DC2    CG301    CG331     9     0.000000     4.644240     3
   CG301   CG2DC2    CG301    CG331     9   180.000000     1.380720     6
   CG301   CG2DC2    CG321    CG321     9     0.000000     0.794960     3
   CG301   CG2DC2    CG321     HGA2     9     0.000000     0.794960     3
   CG301   CG2DC2    NG2D1    CG321     9   180.000000    38.618320     2
   CG301    CG2N2    NG2P1    SG311     9     0.000000     0.041840     1
   CG301    CG2N2    NG2P1    SG311     9   180.000000     5.690240     2
   CG301    CG2N2    NG2P1    SG311     9     0.000000     3.514560     3
   CG301    CG2N2    NG2P1     HGP2     9   180.000000    14.644000     2
   CG301    CG2O1    NG2S0   CG2R61     9     0.000000     6.694400     1
   CG301    CG2O1    NG2S0   CG2R61     9   180.000000    10.460000     2
   CG301    CG2O1    NG2S0    CG331     9   180.000000    10.878400     2
   CG301    CG2O1    NG2S1    CG2O1     9   180.000000     3.096160     2
   CG301    CG2O1    NG2S1    CG321     9     0.000000     6.694400     1
   CG301    CG2O1    NG2S1    CG321     9   180.000000    10.460000     2
   CG301    CG2O1    NG2S1   CG3RC1     9     0.000000     6.694400     1
   CG301    CG2O1    NG2S1   CG3RC1     9   180.000000    10.460000     2
   CG301    CG2O1    NG2S1     HGP1     9   180.000000    10.460000     2
   CG301    CG2O1    NG2S2     HGP1     9   180.000000    10.460000     2
   CG301    CG2O2    OG311     HGP1     9   180.000000     8.577200     2
   CG301    CG2O5    CG301    CG321     9   180.000000     0.502080     1
   CG301    CG2O5    CG301    CG321     9   180.000000     0.585760     2
   CG301    CG2O5    CG301    CG321     9     0.000000     3.221680     3
   CG301    CG2O5    CG301    CG321     9     0.000000     0.920480     6
   CG301    CG2O5    CG301    CG331     9     0.000000     4.560560     1
   CG301    CG2O5    CG301    CG331     9     0.000000     1.338880     2
   CG301    CG2O5    CG301    CG331     9     0.000000     0.502080     3
   CG301    CG2O5    CG301    CG331     9     0.000000     3.430880     6
   CG301    CG2O5    CG311    CG321     9     0.000000     3.138000     1
   CG301    CG2O5    CG311    CG321     9   180.000000     0.753120     2
   CG301    CG2O5    CG311    CG321     9     0.000000     0.292880     3
   CG301    CG2O5    CG311    CG321     9     0.000000     0.125520     6
   CG301    CG2O5    CG311     HGA1     9     0.000000     0.418400     3
   CG301    CG2O5    CG321    CG321     9     0.000000     3.138000     1
   CG301    CG2O5    CG321    CG321     9   180.000000     0.753120     2
   CG301    CG2O5    CG321    CG321     9     0.000000     0.292880     3
   CG301    CG2O5    CG321    CG321     9     0.000000     0.125520     6
   CG301    CG2O5    CG321     HGA2     9     0.000000     0.418400     3
   CG301    CG2O5    CG331     HGA3     9     0.000000     0.418400     3
   CG301    CG2O5   CG3C51   CG3C51     9   180.000000    14.392960     1
   CG301    CG2O5   CG3C51   CG3C51     9     0.000000     2.635920     2
   CG301    CG2O5   CG3C51   CG3C51     9   180.000000     0.753120     3
   CG301    CG2O5   CG3C51   CG3C51     9   180.000000     3.472720     6
   CG301    CG2O5   CG3C51   CG3C52     9   180.000000    11.338640     1
   CG301    CG2O5   CG3C51   CG3C52     9     0.000000    14.016400     2
   CG301    CG2O5   CG3C51   CG3C52     9   180.000000     0.502080     3
   CG301    CG2O5   CG3C51   CG3C52     9   180.000000     1.548080     6
   CG301    CG2O5   CG3C51     HGA1     9     0.000000     0.000000     3
   CG301   CG2R51   CG2R51    CG321     9   180.000000     8.368000     2
   CG301   CG2R51   CG2R51    CG331     9   180.000000     2.092000     2
   CG301   CG2R51   CG2R51   CG3C52     9   180.000000    21.966000     2
   CG301   CG2R51   CG2R51   NG2R51     9   180.000000    12.552000     2
   CG301   CG2R51   CG2R51   NG2R52     9   180.000000    10.460000     2
   CG301   CG2R51   CG2R51   OG2R50     9     0.000000     0.083680     2
   CG301   CG2R51   CG2R51    SG311     9   180.000000    16.694160     2
   CG301   CG2R51   CG2R51    HGR51     9   180.000000     4.184000     2
   CG301   CG2R51   CG2R51    HGR52     9   180.000000     4.184000     2
   CG301   CG2R51   CG2R52    CG331     9   180.000000    10.460000     2
   CG301   CG2R51   CG2R52   NG2R50     9   180.000000    12.552000     2
   CG301   CG2R51   CG3C52    CG2O5     9   180.000000    17.447280     2
   CG301   CG2R51   CG3C52    CG2O5     9     0.000000     1.087840     3
   CG301   CG2R51   CG3C52     HGA2     9   180.000000     4.602400     3
   CG301   CG2R51   NG2R50   CG2R53     9   180.000000    12.552000     2
   CG301   CG2R51   NG2R51   CG2RC0     9   180.000000    12.552000     2
   CG301   CG2R51   NG2R51     HGP1     9   180.000000     4.184000     2
   CG301   CG2R51   NG2R52   CG2R53     9   180.000000    10.460000     2
   CG301   CG2R51   NG2R52     HGP2     9   180.000000    12.552000     2
   CG301   CG2R51   SG2R50   CG2R51     9   180.000000    10.627360     2
   CG301   CG2R52   NG2R50   NG2R51     9   180.000000    15.899200     2
   CG301   CG2R53   NG2R50   CG2R51     9   180.000000    20.585280     2
   CG301   CG2R53   NG2R50   NG2R50     9   180.000000    29.288000     2
   CG301   CG2R53   NG2R51   CG2R61     9     0.000000     0.000000     2
   CG301   CG2R53   NG2R51   NG2R50     9   180.000000    20.920000     2
   CG301   CG2R53   NG2R52   CG2RC0     9   180.000000     7.614880     2
   CG301   CG2R53   NG2R52    CG334     9     0.000000     1.046000     2
   CG301   CG2R53   NG2R52   CG3C54     9   180.000000    48.032320     2
   CG301   CG2R53   NG2R52     HGP2     9   180.000000     3.891120     2
   CG301   CG2R53   SG2R50   CG2R51     9     0.000000     0.125520     1
   CG301   CG2R53   SG2R50   CG2R51     9     0.000000     0.334720     2
   CG301   CG2R53   SG2R50   CG2R51     9     0.000000     0.962320     3
   CG301   CG2R61   CG2R61    CG321     9   180.000000    10.041600     2
   CG301   CG2R61   CG2R61    CG324     9     0.000000     0.334720     2
   CG301   CG2R61   CG2R61    CG331     9   180.000000    10.041600     2
   CG301   CG2R61   CG2R61    NG301     9     0.000000     0.000000     2
   CG301   CG2R61   CG2R61    HGR61     9   180.000000    10.041600     2
   CG301   CG2R61   CG2R64   NG2R60     9   180.000000     9.581360     2
   CG301   CG2R61   CG2R64    NG2S3     9   180.000000     6.485200     2
   CG301   CG2R61   CG2R67   CG2R61     9   180.000000     3.305360     2
   CG301   CG2R61   CG2R67   CG2R67     9   180.000000    11.003920     2
   CG301   CG2R61   CG2RC0   CG2RC0     9     0.000000     0.000000     2
   CG301   CG2R61   CG2RC0   NG2R50     9   180.000000     8.535360     2
   CG301   CG2R61   NG2R62   CG2R64     9   180.000000    19.748480     2
   CG301   CG2R62   CG2R62    HGR63     9   180.000000    16.736000     2
   CG301   CG2R62   NG2R61   CG2R62     9   180.000000     6.234160     2
   CG301   CG2R62   NG2R61     HGP2     9   180.000000    10.250800     2
   CG301   CG2R64   NG2R61   CG2R63     9   180.000000     4.016640     2
   CG301   CG2R64   NG2R61     HGP1     9   180.000000     7.949600     2
   CG301   CG2R64   NG2R62   CG2R62     9   180.000000    23.012000     2
   CG301    CG301    CG301    CG321     9     0.000000     0.836800     3
   CG301    CG301    CG301    CG331     9     0.000000     0.836800     3
   CG301    CG301    CG321    CG2D1     9     0.000000     0.836800     3
   CG301    CG301    CG321    CG321     9     0.000000     0.836800     3
   CG301    CG301    CG321     HGA2     9     0.000000     0.836800     3
   CG301    CG301    CG331     HGA3     9     0.000000     0.669440     3
   CG301    CG301    OG311     HGP1     9     0.000000     4.727920     1
   CG301    CG301    OG311     HGP1     9     0.000000     0.585760     2
   CG301    CG301    OG311     HGP1     9     0.000000     1.004160     3
   CG301    CG301   OG3C61    CG321     9   180.000000     2.217520     1
   CG301    CG301   OG3C61    CG321     9     0.000000     2.845120     2
   CG301    CG301   OG3C61    CG321     9   180.000000     0.878640     3
   CG301    CG301   OG3C61    CG321     9     0.000000     0.627600     4
   CG301    CG311    CG311    CG311     9     0.000000     0.836800     3
   CG301    CG311    CG311    CG321     9     0.000000     0.836800     3
   CG301    CG311    CG311   CG3RC1     9     0.000000     0.836800     3
   CG301    CG311    CG311    OG311     9     0.000000     0.585760     3
   CG301    CG311    CG311   OG3R60     9   180.000000     0.794960     1
   CG301    CG311    CG311   OG3R60     9   180.000000     4.184000     2
   CG301    CG311    CG311   OG3R60     9     0.000000     2.510400     3
   CG301    CG311    CG311   OG3R60     9   180.000000     0.334720     4
   CG301    CG311    CG311    SG3O2     9   180.000000     0.292880     1
   CG301    CG311    CG311    SG3O2     9     0.000000     3.849280     2
   CG301    CG311    CG311    SG3O2     9     0.000000     0.418400     3
   CG301    CG311    CG311    SG3O2     9   180.000000     5.773920     4
   CG301    CG311    CG311     HGA1     9     0.000000     0.815880     3
   CG301    CG311    CG314    CG331     9     0.000000     0.836800     3
   CG301    CG311    CG314    NG3P2     9     0.000000     0.836800     3
   CG301    CG311    CG314     HGA1     9     0.000000     0.836800     3
   CG301    CG311    CG321    CG311     9     0.000000     0.836800     3
   CG301    CG311    CG321    CG321     9     0.000000     0.836800     3
   CG301    CG311    CG321    CG324     9     0.000000     0.836800     3
   CG301    CG311    CG321   CG3RC1     9     0.000000     0.836800     3
   CG301    CG311    CG321    NG2S1     9     0.000000     0.836800     3
   CG301    CG311    CG321    NG311     9     0.000000     0.836800     3
   CG301    CG311    CG321     HGA2     9     0.000000     0.815880     3
   CG301    CG311    CG324    NG3P1     9     0.000000     0.836800     3
   CG301    CG311    CG324     HGA2     9     0.000000     0.836800     3
   CG301    CG311    CG331     HGA3     9     0.000000     0.836800     3
   CG301    CG311   NG2R61   CG2R62     9     0.000000     7.070960     1
   CG301    CG311   NG2R61   CG2R63     9     0.000000     7.280160     1
   CG301    CG311    NG301    CG321     9   180.000000     5.941280     1
   CG301    CG311    NG301    CG321     9     0.000000     3.430880     2
   CG301    CG311    NG301    CG321     9     0.000000     4.267680     3
   CG301    CG311    NG321   HGPAM2     9   180.000000     2.092000     1
   CG301    CG311    NG321   HGPAM2     9     0.000000     1.673600     3
   CG301    CG311    OG311     HGP1     9     0.000000     5.564720     1
   CG301    CG311    OG311     HGP1     9     0.000000     0.753120     2
   CG301    CG311    OG311     HGP1     9     0.000000     1.924640     3
   CG301    CG311   OG3C61    CG301     9   180.000000     2.217520     1
   CG301    CG311   OG3C61    CG301     9     0.000000     2.845120     2
   CG301    CG311   OG3C61    CG301     9   180.000000     0.878640     3
   CG301    CG311   OG3C61    CG301     9     0.000000     0.627600     4
   CG301    CG312    CG321    CG324     9     0.000000    12.217280     3
   CG301    CG312    CG321     HGA2     9     0.000000     0.000000     3
   CG301    CG314    CG321    CG321     9     0.000000     0.836800     3
   CG301    CG314    CG321     HGA2     9     0.000000     0.836800     3
   CG301    CG314    CG331     HGA3     9     0.000000     0.836800     3
   CG301    CG314    NG3P1    CG324     9     0.000000     0.418400     3
   CG301    CG314    NG3P1    CG334     9     0.000000     0.418400     3
   CG301    CG314    NG3P1     HGP2     9     0.000000     0.418400     3
   CG301    CG314    NG3P2    CG314     9     0.000000     0.418400     3
   CG301    CG314    NG3P2     HGP2     9     0.000000     0.418400     3
   CG301    CG314    NG3P3     HGP2     9     0.000000     0.418400     3
   CG301    CG321    CG321    CG311     9     0.000000     0.836800     3
   CG301    CG321    CG321    CG321     9     0.000000     0.815880     3
   CG301    CG321    CG321    CG324     9     0.000000     0.836800     3
   CG301    CG321    CG321   CG3RC1     9     0.000000     0.627600     3
   CG301    CG321    CG321    NG301     9   180.000000     0.669440     1
   CG301    CG321    CG321    NG301     9     0.000000     1.631760     2
   CG301    CG321    CG321    NG311     9     0.000000     1.255200     3
   CG301    CG321    CG321   OG3C61     9   180.000000     0.794960     1
   CG301    CG321    CG321   OG3C61     9   180.000000     4.184000     2
   CG301    CG321    CG321   OG3C61     9     0.000000     2.510400     3
   CG301    CG321    CG321   OG3C61     9   180.000000     0.334720     4
   CG301    CG321    CG321    SG311     9     0.000000     0.836800     3
   CG301    CG321    CG321     HGA2     9     0.000000     0.815880     3
   CG301    CG321    CG324    NG3P0     9     0.000000     4.184000     3
   CG301    CG321    CG324    NG3P1     9     0.000000     4.184000     3
   CG301    CG321    CG324    NG3P2     9     0.000000     4.184000     3
   CG301    CG321    CG324     HGA2     9     0.000000     0.836800     3
   CG301    CG321    CG324     HGP5     9   180.000000     1.840960     3
   CG301    CG321    CG331     HGA3     9     0.000000     0.669440     3
   CG301    CG321   CG3RC1    CG321     9     0.000000     0.836800     3
   CG301    CG321   CG3RC1    CG331     9     0.000000     0.836800     3
   CG301    CG321   CG3RC1   CG3C31     9     0.000000     0.585760     3
   CG301    CG321   CG3RC1   CG3C51     9     0.000000     0.669440     3
   CG301    CG321   CG3RC1   CG3RC1     9     0.000000     0.627600     3
   CG301    CG321   CG3RC1   OG3C31     9   180.000000     5.564720     1
   CG301    CG321   CG3RC1   OG3C31     9     0.000000     3.849280     2
   CG301    CG321   CG3RC1   OG3C31     9     0.000000     1.213360     3
   CG301    CG321   CG3RC1     HGA1     9     0.000000     0.627600     3
   CG301    CG321    NG2S0    CG2O1     9     0.000000     7.531200     1
   CG301    CG321    NG2S0    CG321     9     0.000000     5.899440     1
   CG301    CG321    NG2S0    CG321     9     0.000000     5.355520     2
   CG301    CG321    NG2S1    CG2O1     9     0.000000     7.531200     1
   CG301    CG321    NG2S1     HGP1     9     0.000000     0.000000     1
   CG301    CG321    NG301    CG311     9   180.000000     5.941280     1
   CG301    CG321    NG301    CG311     9     0.000000     3.430880     2
   CG301    CG321    NG301    CG311     9     0.000000     4.267680     3
   CG301    CG321    NG301    CG321     9   180.000000     5.941280     1
   CG301    CG321    NG301    CG321     9     0.000000     3.430880     2
   CG301    CG321    NG301    CG321     9     0.000000     4.267680     3
   CG301    CG321    NG301    CG331     9   180.000000     5.941280     1
   CG301    CG321    NG301    CG331     9     0.000000     3.430880     2
   CG301    CG321    NG301    CG331     9     0.000000     4.267680     3
   CG301    CG321    NG301   CG3C50     9   180.000000     6.694400     1
   CG301    CG321    NG301   CG3C50     9   180.000000     2.886960     2
   CG301    CG321    NG301   CG3C50     9     0.000000     5.732080     3
   CG301    CG321    NG301   CG3RC1     9     0.000000     0.543920     1
   CG301    CG321    NG301   CG3RC1     9     0.000000    22.509920     2
   CG301    CG321    NG301   CG3RC1     9     0.000000     0.251040     3
   CG301    CG321    NG311    CG311     9   180.000000     5.941280     1
   CG301    CG321    NG311    CG311     9     0.000000     3.430880     2
   CG301    CG321    NG311    CG311     9     0.000000     4.267680     3
   CG301    CG321    NG311    CG321     9   180.000000     5.941280     1
   CG301    CG321    NG311    CG321     9     0.000000     3.430880     2
   CG301    CG321    NG311    CG321     9     0.000000     4.267680     3
   CG301    CG321    NG311   HGPAM1     9     0.000000     1.255200     3
   CG301    CG321    OG303      PG1     9   180.000000     2.510400     1
   CG301    CG321    OG303      PG1     9     0.000000     2.719600     2
   CG301    CG321    OG303      PG1     9     0.000000     0.209200     3
   CG301    CG321    OG311     HGP1     9     0.000000     4.727920     1
   CG301    CG321    OG311     HGP1     9     0.000000     0.585760     2
   CG301    CG321    OG311     HGP1     9     0.000000     1.004160     3
   CG301    CG321    SG311    CG301     9   180.000000     1.004160     1
   CG301    CG321    SG311    CG301     9     0.000000     1.548080     3
   CG301    CG321    SG3O2    CG321     9     0.000000     3.765600     1
   CG301    CG321    SG3O2    CG321     9     0.000000     1.464400     2
   CG301    CG321    SG3O2    CG321     9     0.000000     0.502080     3
   CG301    CG321    SG3O2    OG2P1     9     0.000000     0.753120     3
   CG301    CG321    SG3O3    CG331     9   180.000000     0.753120     1
   CG301    CG321    SG3O3    CG331     9     0.000000     2.384880     3
   CG301    CG321    SG3O3    OG2P1     9   180.000000     6.694400     1
   CG301    CG321    SG3O3    OG2P1     9   180.000000     1.004160     2
   CG301    CG321    SG3O3    OG2P1     9   180.000000     0.125520     3
   CG301    CG321      CT1        C     9     0.000000     0.836800     3
   CG301    CG322    CG324    NG3P1     9   180.000000     1.631760     3
   CG301    CG322    CG324     HGA2     9     0.000000     0.753120     3
   CG301    CG324    NG3P1    CG324     9     0.000000     0.418400     3
   CG301    CG324    NG3P1    CG334     9     0.000000     0.418400     3
   CG301    CG324    NG3P1     HGP2     9     0.000000     0.418400     3
   CG301    CG324    NG3P2    CG324     9     0.000000     1.673600     1
   CG301    CG324    NG3P2    CG324     9     0.000000     1.046000     2
   CG301    CG324    NG3P2    CG324     9     0.000000     2.510400     3
   CG301    CG324    NG3P2     HGP2     9     0.000000     0.418400     3
   CG301   CG3C41   CG3C41   CG3C41     9     0.000000     2.552240     3
   CG301   CG3C41   CG3C41   CG3C41     9   180.000000     3.514560     6
   CG301   CG3C41   CG3C41     HGA2     9     0.000000     0.000000     3
   CG301   CG3C50   NG2R51   CG2R53     9     0.000000     4.267680     2
   CG301   CG3C50   NG2R51   CG2R53     9     0.000000    26.233680     3
   CG301   CG3C50   NG2R51   CG2RC0     9   180.000000     0.627600     2
   CG301   CG3C50   NG2R51   CG2RC0     9   180.000000     1.380720     3
   CG301   CG3C50   NG3C51   NG2R50     9   180.000000     4.393200     2
   CG301   CG3C50   NG3C51   NG2R50     9     0.000000    12.803040     3
   CG301   CG3C50   NG3C51     HGP1     9     0.000000     7.865920     1
   CG301   CG3C50   NG3C51     HGP1     9   180.000000     5.732080     3
   CG301   CG3C50   NG3C51     HGP1     9   180.000000     1.673600     4
   CG301   CG3C51   CG3C51    CG331     9     0.000000     6.234160     2
   CG301   CG3C51   CG3C51    CG331     9     0.000000     2.761440     3
   CG301   CG3C51   CG3C51   CG3C51     9     0.000000     0.794960     3
   CG301   CG3C51   CG3C51     HGA1     9     0.000000     0.794960     3
   CG301   CG3C51   CG3C52    CG2D1     9     0.000000    15.690000     2
   CG301   CG3C51   CG3C52    CG2D1     9     0.000000    18.409600     3
   CG301   CG3C51   CG3C52    CG2D1     9   180.000000     0.711280     4
   CG301   CG3C51   CG3C52    CG2D1     9   180.000000     4.267680     6
   CG301   CG3C51   CG3C52   CG3C52     9     0.000000     0.794960     3
   CG301   CG3C51   CG3C52     HGA2     9     0.000000     0.794960     3
   CG301   CG3C51   NG2R53   CG2R53     9   180.000000     3.012480     3
   CG301   CG3C51   NG2R53     HGP1     9     0.000000     4.560560     2
   CG301   CG3C51   NG2R53     HGP1     9     0.000000     1.046000     3
   CG301   CG3C51   NG3C51   CG3C52     9     0.000000    13.054080     3
   CG301   CG3C51   NG3C51     HGP1     9     0.000000     5.397360     1
   CG301   CG3C51   NG3C51     HGP1     9   180.000000     8.619040     3
   CG301   CG3C51   NG3C51     HGP1     9   180.000000     0.209200     6
   CG301   CG3C53    NG3P2   CG3C54     9     0.000000     4.727920     3
   CG301   CG3C53    NG3P2     HGP2     9     0.000000     4.016640     3
   CG301   CG3C53    NG3P2     HGP2     9   180.000000     2.050160     4
   CG301   CG3RC1   CG3RC1    CG321     9     0.000000    16.736000     3
   CG301   CG3RC1   CG3RC1    CG331     9     0.000000     0.669440     3
   CG301   CG3RC1   CG3RC1   CG3C54     9     0.000000     0.962320     3
   CG301   CG3RC1   CG3RC1   CG3C54     9     0.000000     6.234160     4
   CG301   CG3RC1   CG3RC1   OG3C51     9     0.000000     1.380720     2
   CG301   CG3RC1   CG3RC1   OG3C51     9   180.000000    13.890880     3
   CG301   CG3RC1   CG3RC1     HGA1     9     0.000000     0.627600     3
   CG301   CG3RC1   OG3C51   CG3C50     9     0.000000     1.213360     2
   CG301   CG3RC1   OG3C51   CG3C50     9   180.000000     0.083680     3
   CG301   NG2R51   SG2R50   CG2R51     9     0.000000     0.000000     2
   CG301   NG2R61   NG2R61     HGP1     9     0.000000    11.213120     2
   CG301   NG2R61   NG2R61     HGP1     9   180.000000     1.464400     4
   CG301    OG303      PG1    OG2P1     9     0.000000     0.418400     3
   CG301    OG303      PG1    OG311     9     0.000000     3.974800     2
   CG301    OG303      PG1    OG311     9     0.000000     2.092000     3
   CG301      CT1        C      NH1     9     0.000000     0.000000     1
   CG301      CT1        C        O     9     0.000000     5.857600     1
   CG301      CT1        C        N     9   180.000000    11.506000     2
   CG301      CT1        C        N     9     0.000000     1.255200     4
   CG311    CG2D1    CG2D1    CG311     9   180.000000     1.882800     1
   CG311    CG2D1    CG2D1    CG311     9   180.000000    35.564000     2
   CG311    CG2D1    CG2D1    CG314     9   180.000000     0.392878     1
   CG311    CG2D1    CG2D1    CG314     9   180.000000    18.439306     2
   CG311    CG2D1    CG2D1    CG321     9   180.000000     1.882800     1
   CG311    CG2D1    CG2D1    CG321     9   180.000000    35.564000     2
   CG311    CG2D1    CG2D1    CG324     9   180.000000     0.376560     1
   CG311    CG2D1    CG2D1    CG324     9   180.000000    18.451440     2
   CG311    CG2D1    CG2D1    CG331     9   180.000000     1.882800     1
   CG311    CG2D1    CG2D1    CG331     9   180.000000    35.564000     2
   CG311    CG2D1    CG2D1   CG3C50     9     0.000000     3.807440     1
   CG311    CG2D1    CG2D1   CG3C50     9   180.000000    23.932480     2
   CG311    CG2D1    CG2D1     HGA4     9   180.000000     4.184000     2
   CG311    CG2D1   CG2D1O    NG3P1     9     0.000000     0.000000     2
   CG311    CG2D1   CG2D1O     HGA4     9   180.000000    25.104000     2
   CG311    CG2D1    CG2D2     HGA5     9   180.000000    21.756800     2
   CG311    CG2D1   CG2D2O    NG3P1     9     0.000000     0.000000     2
   CG311    CG2D1   CG2D2O     HGA4     9   180.000000    25.104000     2
   CG311    CG2D1    CG311   CG2R61     9     0.000000     0.000000     2
   CG311    CG2D1    CG311   CG2R61     9     0.000000     3.179840     3
   CG311    CG2D1    CG311    CG321     9     0.000000     0.794960     3
   CG311    CG2D1    CG311    CG331     9     0.000000     0.794960     3
   CG311    CG2D1    CG311    OG311     9   180.000000     1.046000     1
   CG311    CG2D1    CG311    OG311     9   180.000000     2.175680     2
   CG311    CG2D1    CG311    OG311     9   180.000000     0.962320     3
   CG311    CG2D1    CG311     HGA1     9     0.000000     0.125520     3
   CG311    CG2D1    CG321    CG2O1     9     0.000000     1.882800     2
   CG311    CG2D1    CG321    CG2O1     9     0.000000     2.677760     3
   CG311    CG2D1    CG321    CG321     9     0.000000     0.794960     3
   CG311    CG2D1    CG321     HGA2     9     0.000000     0.125520     3
   CG311    CG2D1    CG331     HGA3     9     0.000000     0.669440     3
   CG311    CG2D1    NG2D1    CG321     9   180.000000    50.208000     2
   CG311   CG2D1O    NG2D1    CG2O6     9     0.000000     0.502080     1
   CG311   CG2D1O    NG2D1    CG2O6     9     0.000000     1.171520     2
   CG311   CG2D1O    OG311     HGP1     9   180.000000    14.895040     2
   CG311   CG2D2O    NG2D1    CG2O6     9     0.000000     0.502080     1
   CG311   CG2D2O    NG2D1    CG2O6     9     0.000000     1.171520     2
   CG311   CG2D2O    OG311     HGP1     9   180.000000    14.895040     2
   CG311   CG2DC1   CG2DC1    CG311     9   180.000000    41.840000     2
   CG311   CG2DC1   CG2DC1    CG321     9   180.000000    41.840000     2
   CG311   CG2DC1   CG2DC1    CG331     9   180.000000    41.840000     2
   CG311   CG2DC1   CG2DC1     HGA4     9   180.000000    21.756800     2
   CG311   CG2DC1   CG2DC2   CG2DC2     9     0.000000     3.765600     1
   CG311   CG2DC1   CG2DC2   CG2DC2     9   180.000000     8.786400     2
   CG311   CG2DC1   CG2DC2   CG2DC2     9     0.000000     0.920480     3
   CG311   CG2DC1   CG2DC2   CG2DC2     9   180.000000     1.046000     5
   CG311   CG2DC1   CG2DC2   CG2DC2     9     0.000000     0.418400     6
   CG311   CG2DC1   CG2DC2     HGA4     9   180.000000     4.184000     2
   CG311   CG2DC1    CG2O5    CG321     9   180.000000    22.719120     2
   CG311   CG2DC1    CG2O5    OG2D3     9   180.000000     3.765600     2
   CG311   CG2DC1   CG2R61   CG2R61     9   180.000000     4.225840     2
   CG311   CG2DC1   CG2R61   CG2R61     9     0.000000     0.585760     4
   CG311   CG2DC1    CG321    CG321     9     0.000000     0.794960     3
   CG311   CG2DC1    CG321     HGA2     9     0.000000     0.794960     3
   CG311   CG2DC2   CG2DC2    CG311     9   180.000000    41.840000     2
   CG311   CG2DC2   CG2DC2    CG321     9   180.000000    41.840000     2
   CG311   CG2DC2   CG2DC2    CG331     9   180.000000    41.840000     2
   CG311   CG2DC2   CG2DC2     HGA4     9   180.000000    21.756800     2
   CG311   CG2DC2    CG2O5    CG321     9   180.000000    22.719120     2
   CG311   CG2DC2    CG2O5    OG2D3     9   180.000000     3.765600     2
   CG311   CG2DC2   CG2R61   CG2R61     9   180.000000     4.225840     2
   CG311   CG2DC2   CG2R61   CG2R61     9     0.000000     0.585760     4
   CG311   CG2DC2    CG321    CG321     9     0.000000     0.794960     3
   CG311   CG2DC2    CG321     HGA2     9     0.000000     0.794960     3
   CG311    CG2N2    NG2P1     HGP2     9   180.000000    14.644000     2
   CG311    CG2O1    NG2D1   CG2DC1     9     0.000000    12.317696     1
   CG311    CG2O1    NG2D1   CG2DC1     9   180.000000     5.635848     2
   CG311    CG2O1    NG2D1   CG2DC1     9   180.000000     9.863362     3
   CG311    CG2O1    NG2D1   CG2DC2     9     0.000000    12.317696     1
   CG311    CG2O1    NG2D1   CG2DC2     9   180.000000     5.635848     2
   CG311    CG2O1    NG2D1   CG2DC2     9   180.000000     9.863362     3
   CG311    CG2O1    NG2D1   CG2R64     9   180.000000    16.024720     1
   CG311    CG2O1    NG2D1   CG2R64     9   180.000000     8.326160     2
   CG311    CG2O1    NG2D1   CG2R64     9     0.000000     4.058480     3
   CG311    CG2O1    NG2D1   CG2R64     9     0.000000     7.322000     4
   CG311    CG2O1    NG2D1   CG2R64     9   180.000000     5.481040     5
   CG311    CG2O1    NG2D1   CG2R64     9     0.000000     2.008320     6
   CG311    CG2O1   NG2R61   CG2R61     9   180.000000     0.000000     1
   CG311    CG2O1   NG2R61   CG2R61     9   180.000000     4.686080     2
   CG311    CG2O1   NG2R61   CG2R64     9   180.000000     0.000000     1
   CG311    CG2O1   NG2R61   CG2R64     9   180.000000     0.376560     2
   CG311    CG2O1    NG2S0    CG2O1     9   180.000000     9.079280     2
   CG311    CG2O1    NG2S0    CG311     9   180.000000    10.878400     2
   CG311    CG2O1    NG2S0    CG321     9   180.000000    10.878400     2
   CG311    CG2O1    NG2S0    CG331     9   180.000000    10.878400     2
   CG311    CG2O1    NG2S0   CG3C51     9   180.000000    11.506000     2
   CG311    CG2O1    NG2S0   CG3C51     9     0.000000     1.255200     4
   CG311    CG2O1    NG2S0   CG3C52     9   180.000000    11.506000     2
   CG311    CG2O1    NG2S0   CG3C52     9     0.000000     1.255200     4
   CG311    CG2O1    NG2S1    CG2O6     9   180.000000     3.096160     2
   CG311    CG2O1    NG2S1   CG2R61     9     0.000000     6.694400     1
   CG311    CG2O1    NG2S1   CG2R61     9   180.000000    10.460000     2
   CG311    CG2O1    NG2S1   CG2R62     9     0.000000     6.694400     1
   CG311    CG2O1    NG2S1   CG2R62     9   180.000000    10.460000     2
   CG311    CG2O1    NG2S1    CG311     9     0.000000     6.694400     1
   CG311    CG2O1    NG2S1    CG311     9   180.000000    10.460000     2
   CG311    CG2O1    NG2S1    CG321     9     0.000000     6.694400     1
   CG311    CG2O1    NG2S1    CG321     9   180.000000    10.460000     2
   CG311    CG2O1    NG2S1    CG331     9     0.000000     6.694400     1
   CG311    CG2O1    NG2S1    CG331     9   180.000000    10.460000     2
   CG311    CG2O1    NG2S1    NG2D1     9     0.000000     3.765600     1
   CG311    CG2O1    NG2S1    NG2D1     9   180.000000    14.644000     2
   CG311    CG2O1    NG2S1     HGP1     9   180.000000    10.460000     2
   CG311    CG2O1    NG2S2     HGP1     9   180.000000    10.460000     2
   CG311    CG2O1      NH1      CT3     9     0.000000     6.694400     1
   CG311    CG2O1      NH1      CT3     9   180.000000    10.460000     2
   CG311    CG2O1      NH1        H     9   180.000000    10.460000     2
   CG311    CG2O1      NH1      CT1     9     0.000000     6.694400     1
   CG311    CG2O1      NH1      CT1     9   180.000000    10.460000     2
   CG311    CG2O1      NH1      CT2     9     0.000000     6.694400     1
   CG311    CG2O1      NH1      CT2     9   180.000000    10.460000     2
   CG311    CG2O1        N      CP1     9   180.000000    11.506000     2
   CG311    CG2O1        N      CP1     9     0.000000     1.255200     4
   CG311    CG2O1        N      CP3     9   180.000000    11.506000     2
   CG311    CG2O1        N      CP3     9     0.000000     1.255200     4
   CG311    CG2O2    OG302    CG301     9   180.000000     8.577200     2
   CG311    CG2O2    OG302    CG321     9   180.000000     8.577200     2
   CG311    CG2O2    OG302    CG331     9   180.000000     8.577200     2
   CG311    CG2O2    OG311     HGP1     9   180.000000     8.577200     2
   CG311    CG2O5    CG2O5    CG321     9     0.000000     0.125520     2
   CG311    CG2O5    CG2O5    CG321     9     0.000000     0.836800     4
   CG311    CG2O5    CG2O5    OG2D3     9   180.000000     8.116960     2
   CG311    CG2O5    CG2O5    OG2D3     9     0.000000     0.041840     4
   CG311    CG2O5   CG2R61   CG2R61     9   180.000000     6.631640     2
   CG311    CG2O5   CG2R61   CG2R67     9   180.000000     6.610720     2
   CG311    CG2O5    CG301    CG2O3     9   180.000000     0.000000     1
   CG311    CG2O5    CG301    CG2O3     9     0.000000     0.000000     2
   CG311    CG2O5    CG301    CG321     9   180.000000     0.000000     1
   CG311    CG2O5    CG301    CG321     9   180.000000     1.046000     2
   CG311    CG2O5    CG301    CG321     9     0.000000     1.338880     3
   CG311    CG2O5    CG301    CG321     9     0.000000     3.179840     6
   CG311    CG2O5    CG311    CG2D1     9     0.000000     0.836800     1
   CG311    CG2O5    CG311    CG2D1     9     0.000000     1.213360     2
   CG311    CG2O5    CG311    CG2D1     9   180.000000     3.472720     3
   CG311    CG2O5    CG311    CG2D1     9     0.000000     2.845120     6
   CG311    CG2O5    CG311    CG311     9     0.000000     3.138000     1
   CG311    CG2O5    CG311    CG311     9   180.000000     0.753120     2
   CG311    CG2O5    CG311    CG311     9     0.000000     0.292880     3
   CG311    CG2O5    CG311    CG311     9     0.000000     0.125520     6
   CG311    CG2O5    CG311    CG321     9     0.000000     3.138000     1
   CG311    CG2O5    CG311    CG321     9   180.000000     0.753120     2
   CG311    CG2O5    CG311    CG321     9     0.000000     0.292880     3
   CG311    CG2O5    CG311    CG321     9     0.000000     0.125520     6
   CG311    CG2O5    CG311    NG321     9   180.000000     0.627600     1
   CG311    CG2O5    CG311    NG321     9     0.000000     0.334720     2
   CG311    CG2O5    CG311    NG321     9   180.000000     0.334720     3
   CG311    CG2O5    CG311    NG321     9   180.000000     0.251040     4
   CG311    CG2O5    CG311    NG321     9     0.000000     0.209200     6
   CG311    CG2O5    CG311     HGA1     9     0.000000     0.418400     3
   CG311    CG2O5    CG321    CG2D1     9     0.000000     0.376560     1
   CG311    CG2O5    CG321    CG2D1     9     0.000000     2.468560     2
   CG311    CG2O5    CG321    CG2D1     9   180.000000     3.054320     3
   CG311    CG2O5    CG321    CG2D1     9   180.000000     1.548080     6
   CG311    CG2O5    CG321    CG2O5     9     0.000000     0.502080     1
   CG311    CG2O5    CG321    CG2O5     9     0.000000     9.999760     2
   CG311    CG2O5    CG321    CG2O5     9   180.000000     4.727920     3
   CG311    CG2O5    CG321    CG2O5     9     0.000000     1.799120     4
   CG311    CG2O5    CG321    CG2O5     9   180.000000     1.631760     6
   CG311    CG2O5    CG321    CG301     9     0.000000     3.138000     1
   CG311    CG2O5    CG321    CG301     9   180.000000     0.753120     2
   CG311    CG2O5    CG321    CG301     9     0.000000     0.292880     3
   CG311    CG2O5    CG321    CG301     9     0.000000     0.125520     6
   CG311    CG2O5    CG321    CG311     9     0.000000     3.138000     1
   CG311    CG2O5    CG321    CG311     9   180.000000     0.753120     2
   CG311    CG2O5    CG321    CG311     9     0.000000     0.292880     3
   CG311    CG2O5    CG321    CG311     9     0.000000     0.125520     6
   CG311    CG2O5    CG321    CG314     9   180.000000     0.460240     1
   CG311    CG2O5    CG321    CG314     9     0.000000     0.000000     2
   CG311    CG2O5    CG321    CG314     9     0.000000     1.464400     3
   CG311    CG2O5    CG321    CG314     9     0.000000     1.840960     6
   CG311    CG2O5    CG321    CG321     9     0.000000     3.138000     1
   CG311    CG2O5    CG321    CG321     9   180.000000     0.753120     2
   CG311    CG2O5    CG321    CG321     9     0.000000     0.292880     3
   CG311    CG2O5    CG321    CG321     9     0.000000     0.125520     6
   CG311    CG2O5    CG321    CG324     9   180.000000     0.000000     1
   CG311    CG2O5    CG321    CG324     9     0.000000     5.732080     2
   CG311    CG2O5    CG321    CG324     9   180.000000     0.000000     3
   CG311    CG2O5    CG321    CG324     9   180.000000     4.644240     4
   CG311    CG2O5    CG321    CG324     9   180.000000     0.460240     6
   CG311    CG2O5    CG321   CG3RC1     9     0.000000     1.004160     1
   CG311    CG2O5    CG321   CG3RC1     9   180.000000     6.066800     2
   CG311    CG2O5    CG321   CG3RC1     9     0.000000     0.711280     3
   CG311    CG2O5    CG321   CG3RC1     9     0.000000     1.255200     6
   CG311    CG2O5    CG321     HGA2     9     0.000000     0.418400     3
   CG311    CG2O5    CG331     HGA3     9     0.000000     0.418400     3
   CG311   CG2R51   CG2R51    CG321     9   180.000000     8.368000     2
   CG311   CG2R51   CG2R51    CG331     9   180.000000     2.092000     2
   CG311   CG2R51   CG2R51   CG3C52     9   180.000000    21.966000     2
   CG311   CG2R51   CG2R51   NG2R50     9   180.000000    12.552000     2
   CG311   CG2R51   CG2R51   NG2R51     9   180.000000    12.552000     2
   CG311   CG2R51   CG2R51   NG2R52     9   180.000000    10.460000     2
   CG311   CG2R51   CG2R51    NG2S1     9   180.000000     8.744560     2
   CG311   CG2R51   CG2R51   OG2R50     9   180.000000     5.481040     2
   CG311   CG2R51   CG2R51   SG2R50     9   180.000000    28.242000     2
   CG311   CG2R51   CG2R51    SG3O2     9   180.000000     3.723760     2
   CG311   CG2R51   CG2R51    HGR51     9   180.000000     4.184000     2
   CG311   CG2R51   CG2R51    HGR52     9   180.000000     4.184000     2
   CG311   CG2R51   CG2R52    CG321     9   180.000000    10.460000     2
   CG311   CG2R51   CG2R52   NG2R50     9   180.000000    12.552000     2
   CG311   CG2R51   CG2R52    HGR52     9   180.000000     4.184000     2
   CG311   CG2R51   CG2R53   NG2R50     9   180.000000    22.509920     2
   CG311   CG2R51   CG2R53    NG2S1     9   180.000000     4.518720     2
   CG311   CG2R51   CG2R53    OG2D1     9   180.000000     3.514560     2
   CG311   CG2R51   CG2R53   OG3C51     9   180.000000     7.656720     2
   CG311   CG2R51   CG2RC0   CG2R61     9   180.000000    10.460000     2
   CG311   CG2R51   CG2RC0   CG2RC0     9   180.000000    12.552000     2
   CG311   CG2R51   NG2R51   CG2R51     9   180.000000    12.552000     2
   CG311   CG2R51   NG2R51   CG2R53     9   180.000000    12.552000     2
   CG311   CG2R51   NG2R51   CG2RC0     9   180.000000    12.552000     2
   CG311   CG2R51   NG2R51    CG321     9     0.000000    12.844880     2
   CG311   CG2R51   NG2R51     HGP1     9   180.000000     4.184000     2
   CG311   CG2R51   NG2R52    CG2N2     9   180.000000     2.259360     2
   CG311   CG2R51   NG2R52   CG2R53     9   180.000000    10.460000     2
   CG311   CG2R51   NG2R52   CG2RC0     9   180.000000    10.460000     2
   CG311   CG2R51   NG2R52     HGP2     9   180.000000    12.552000     2
   CG311   CG2R51   NG2RC0   CG2R61     9   180.000000     2.928800     2
   CG311   CG2R51   NG2RC0   CG2RC0     9   180.000000     2.928800     2
   CG311   CG2R51   OG2R50   CG2R51     9   180.000000    13.221440     2
   CG311   CG2R51   OG2R50   CG2R53     9   180.000000    13.221440     2
   CG311   CG2R51   OG2R50   CG2RC0     9   180.000000    13.221440     2
   CG311   CG2R51   SG2R50   CG2R51     9   180.000000    10.627360     2
   CG311   CG2R51   SG2R50   CG2R53     9   180.000000    10.627360     2
   CG311   CG2R52   CG2R52    CG321     9   180.000000    10.460000     2
   CG311   CG2R52   CG2R52   NG2R50     9   180.000000    12.552000     2
   CG311   CG2R52   NG2R50   NG2R51     9   180.000000    15.899200     2
   CG311   CG2R52   NG2R50   OG2R50     9   180.000000    17.489120     2
   CG311   CG2R53   NG2R50   CG251O     9   180.000000     0.373631     2
   CG311   CG2R53   NG2R50   CG252O     9   180.000000     0.373631     2
   CG311   CG2R53   NG2R50   CG2R51     9   180.000000    20.576075     2
   CG311   CG2R53   NG2R50   CG2R53     9   180.000000    20.585280     2
   CG311   CG2R53   NG2R50   CG2RC0     9   180.000000    20.585280     2
   CG311   CG2R53   NG2R51   CG2R51     9   180.000000    13.786280     2
   CG311   CG2R53   NG2R51   CG2R53     9   180.000000     0.393296     2
   CG311   CG2R53   NG2R51   CG2RC0     9   180.000000    13.765360     2
   CG311   CG2R53   NG2R51    CG321     9   180.000000     0.017154     2
   CG311   CG2R53   NG2R51    CG331     9   180.000000     0.202087     2
   CG311   CG2R53   NG2R51   NG2R50     9   180.000000    20.920000     2
   CG311   CG2R53   NG2R51     HGP1     9   180.000000     4.184000     2
   CG311   CG2R53   NG2R52   CG2R51     9   180.000000     7.614880     2
   CG311   CG2R53   NG2R52    CG324     9   180.000000     0.627600     2
   CG311   CG2R53   NG2R52     HGP2     9   180.000000     3.891120     2
   CG311   CG2R53   SG2R50   CG2R51     9     0.000000     0.000000     2
   CG311   CG2R61   CG2R61    CG311     9   180.000000    10.041600     2
   CG311   CG2R61   CG2R61    CG314     9   180.000000     5.313680     2
   CG311   CG2R61   CG2R61    CG321     9   180.000000    10.041600     2
   CG311   CG2R61   CG2R61    CG331     9   180.000000    10.041600     2
   CG311   CG2R61   CG2R61   CG3C50     9   180.000000     8.619040     2
   CG311   CG2R61   CG2R61   NG2R62     9   180.000000     4.184000     2
   CG311   CG2R61   CG2R61    NG2S3     9   180.000000     1.297040     2
   CG311   CG2R61   CG2R61    NG301     9   180.000000    14.685840     2
   CG311   CG2R61   CG2R61    NG311     9   180.000000    14.309280     2
   CG311   CG2R61   CG2R61    OG301     9   180.000000    10.041600     2
   CG311   CG2R61   CG2R61    OG311     9   180.000000    10.041600     2
   CG311   CG2R61   CG2R61   OG3R60     9   180.000000    10.041600     2
   CG311   CG2R61   CG2R61    SG311     9   180.000000     8.242480     2
   CG311   CG2R61   CG2R61    HGR61     9   180.000000    10.041600     2
   CG311   CG2R61   CG2R61    HGR62     9   180.000000    10.041600     2
   CG311   CG2R61   CG2R62   CG2R62     9   180.000000    12.970400     2
   CG311   CG2R61   CG2R62   NG2R61     9   180.000000     0.669440     2
   CG311   CG2R61   CG2R64   NG2R62     9   180.000000     4.644240     2
   CG311   CG2R61   CG2R64    NG2S1     9   180.000000     2.259360     2
   CG311   CG2R61   CG2R67   CG2R61     9   180.000000     7.782240     2
   CG311   CG2R61   CG2R67   CG2R67     9     0.000000     1.004160     2
   CG311   CG2R61   CG2RC0   CG2RC0     9     0.000000     0.962320     2
   CG311   CG2R61   CG2RC0   CG3C50     9   180.000000    10.711040     2
   CG311   CG2R61   NG2R60   CG2R61     9   180.000000    12.970400     2
   CG311   CG2R61   NG2R62   NG2R62     9   180.000000    34.308800     2
   CG311   CG2R61   NG2RC0   CG2R51     9   180.000000    11.798880     2
   CG311   CG2R61   NG2RC0   CG2RC0     9   180.000000     7.238320     2
   CG311   CG2R62   CG2R62    CG331     9   180.000000     9.581360     2
   CG311   CG2R62   CG2R62   NG2R61     9   180.000000    16.736000     2
   CG311   CG2R62   CG2R62    HGR62     9   180.000000    16.736000     2
   CG311   CG2R62   CG2R62    HGR63     9   180.000000    16.736000     2
   CG311   CG2R62   CG2R63   NG2R61     9   180.000000    23.430400     2
   CG311   CG2R62   CG2R63    OG2D4     9   180.000000     0.000000     2
   CG311   CG2R62   NG2R61   CG2R62     9   180.000000     3.765600     2
   CG311   CG2R62   NG2R61   CG2R63     9   180.000000    13.388800     2
   CG311   CG2R62   NG2R61    CG314     9   180.000000     5.732080     2
   CG311   CG2R62   NG2R61    CG321     9     0.000000     1.631760     2
   CG311   CG2R62   NG2R61     HGP1     9   180.000000     3.514560     2
   CG311   CG2R62   NG2R62   CG2R64     9   180.000000    10.460000     2
   CG311   CG2R64   NG2R61   CG2R63     9     0.000000     2.008320     2
   CG311   CG2R64   NG2R61    NG2S3     9   180.000000    19.539280     2
   CG311   CG2R64   NG2R62   CG2R62     9   180.000000    23.012000     2
   CG311    CG301    CG311    CG311     9     0.000000     0.836800     3
   CG311    CG301    CG311    CG321     9     0.000000     0.836800     3
   CG311    CG301    CG311     HGA1     9     0.000000     0.815880     3
   CG311    CG301    CG321    CG311     9     0.000000     0.836800     3
   CG311    CG301    CG321    CG321     9     0.000000     0.836800     3
   CG311    CG301    CG321    CG324     9     0.000000     0.836800     3
   CG311    CG301    CG321    CG331     9     0.000000     0.836800     3
   CG311    CG301    CG321   CG3RC1     9   180.000000     0.125520     3
   CG311    CG301    CG321    NG301     9     0.000000     0.836800     3
   CG311    CG301    CG321    OG303     9   180.000000     0.836800     3
   CG311    CG301    CG321    OG311     9     0.000000     0.585760     3
   CG311    CG301    CG321     HGA2     9     0.000000     0.815880     3
   CG311    CG301    CG324    NG3P1     9     0.000000     0.836800     3
   CG311    CG301    CG324    NG3P2     9     0.000000     0.836800     3
   CG311    CG301    CG324     HGA2     9     0.000000     0.836800     3
   CG311    CG301    CG331     HGA3     9     0.000000     0.669440     3
   CG311    CG301   CG3RC1   CG3C52     9     0.000000     0.627600     3
   CG311    CG301   CG3RC1   CG3RC1     9     0.000000     0.627600     3
   CG311    CG301   CG3RC1   OG3C51     9   180.000000     0.711280     2
   CG311    CG301   CG3RC1   OG3C51     9     0.000000     1.380720     3
   CG311    CG301   CG3RC1     HGA1     9     0.000000     0.627600     3
   CG311    CG301    NG2S0    CG2O1     9     0.000000     7.531200     1
   CG311    CG301    NG2S0    CG321     9   180.000000     1.046000     1
   CG311    CG301    NG2S0    CG321     9     0.000000     0.000000     2
   CG311    CG301    NG2S1    CG2O1     9     0.000000     7.531200     1
   CG311    CG301    NG2S1    CG2O6     9     0.000000     7.531200     1
   CG311    CG301    NG2S1     HGP1     9     0.000000     0.000000     1
   CG311    CG301    NG321   HGPAM2     9   180.000000     2.092000     1
   CG311    CG301    NG321   HGPAM2     9     0.000000     1.673600     3
   CG311    CG301    OG311     HGP1     9     0.000000     4.727920     1
   CG311    CG301    OG311     HGP1     9     0.000000     0.585760     2
   CG311    CG301    OG311     HGP1     9     0.000000     1.004160     3
   CG311    CG301   OG3C61    CG311     9   180.000000     2.217520     1
   CG311    CG301   OG3C61    CG311     9     0.000000     2.845120     2
   CG311    CG301   OG3C61    CG311     9   180.000000     0.878640     3
   CG311    CG301   OG3C61    CG311     9     0.000000     0.627600     4
   CG311    CG301   OG3R60    CG2O6     9     0.000000     0.794960     2
   CG311    CG301   OG3R60    CG2O6     9     0.000000     5.020800     3
   CG311    CG301      CT1        C     9     0.000000     0.836800     3
   CG311    CG311    CG311    CG311     9   180.000000     2.092000     4
   CG311    CG311    CG311    CG314     9     0.000000     0.836800     3
   CG311    CG311    CG311    CG321     9   180.000000     2.092000     4
   CG311    CG311    CG311    CG324     9     0.000000     0.836800     3
   CG311    CG311    CG311    CG331     9   180.000000     2.092000     4
   CG311    CG311    CG311   CG3C50     9     0.000000     0.627600     3
   CG311    CG311    CG311   CG3C51     9     0.000000     0.627600     3
   CG311    CG311    CG311   CG3RC1     9     0.000000     0.627600     3
   CG311    CG311    CG311    NG2S1     9     0.000000     0.836800     3
   CG311    CG311    CG311    NG301     9     0.000000     1.673600     1
   CG311    CG311    CG311    NG301     9     0.000000     3.347200     3
   CG311    CG311    CG311    NG321     9     0.000000     1.673600     1
   CG311    CG311    CG311    NG321     9     0.000000     3.347200     3
   CG311    CG311    CG311    OG301     9   180.000000     0.669440     1
   CG311    CG311    CG311    OG301     9     0.000000     1.631760     2
   CG311    CG311    CG311    OG311     9     0.000000     0.585760     3
   CG311    CG311    CG311   OG3C61     9   180.000000     0.794960     1
   CG311    CG311    CG311   OG3C61     9   180.000000     4.184000     2
   CG311    CG311    CG311   OG3C61     9     0.000000     2.510400     3
   CG311    CG311    CG311   OG3C61     9   180.000000     0.334720     4
   CG311    CG311    CG311    SG3O2     9   180.000000     0.292880     1
   CG311    CG311    CG311    SG3O2     9     0.000000     0.543920     2
   CG311    CG311    CG311    SG3O2     9   180.000000     1.380720     3
   CG311    CG311    CG311    SG3O2     9   180.000000     0.627600     4
   CG311    CG311    CG311     HGA1     9     0.000000     0.815880     3
   CG311    CG311    CG314    CG311     9   180.000000     2.092000     4
   CG311    CG311    CG314    CG321     9   180.000000     2.092000     4
   CG311    CG311    CG314    NG3P3     9     0.000000     0.836800     3
   CG311    CG311    CG314   OG3C61     9   180.000000     0.794960     1
   CG311    CG311    CG314   OG3C61     9   180.000000     4.184000     2
   CG311    CG311    CG314   OG3C61     9     0.000000     2.510400     3
   CG311    CG311    CG314   OG3C61     9   180.000000     0.334720     4
   CG311    CG311    CG314     HGA1     9     0.000000     0.836800     3
   CG311    CG311    CG321    CG2D1     9     0.000000     0.836800     3
   CG311    CG311    CG321    CG2O5     9     0.000000     0.836800     3
   CG311    CG311    CG321   CG2R51     9     0.000000     1.464400     3
   CG311    CG311    CG321    CG301     9     0.000000     0.836800     3
   CG311    CG311    CG321    CG311     9     0.000000     0.836800     3
   CG311    CG311    CG321    CG314     9     0.000000     0.836800     3
   CG311    CG311    CG321    CG321     9     0.000000     0.836800     3
   CG311    CG311    CG321    CG324     9     0.000000     0.836800     3
   CG311    CG311    CG321    CG331     9     0.000000     0.836800     3
   CG311    CG311    CG321   CG3RC1     9     0.000000     0.627600     3
   CG311    CG311    CG321   NG2R61     9     0.000000     0.836800     3
   CG311    CG311    CG321    NG2S1     9     0.000000     0.836800     3
   CG311    CG311    CG321    NG301     9     0.000000     0.836800     3
   CG311    CG311    CG321    NG311     9     0.000000     0.836800     3
   CG311    CG311    CG321    OG303     9   180.000000     0.836800     3
   CG311    CG311    CG321    OG311     9   180.000000     0.836800     3
   CG311    CG311    CG321   OG3C61     9   180.000000     0.794960     1
   CG311    CG311    CG321   OG3C61     9   180.000000     4.184000     2
   CG311    CG311    CG321   OG3C61     9     0.000000     2.510400     3
   CG311    CG311    CG321   OG3C61     9   180.000000     0.334720     4
   CG311    CG311    CG321   OG3R60     9   180.000000     0.794960     1
   CG311    CG311    CG321   OG3R60     9   180.000000     4.184000     2
   CG311    CG311    CG321   OG3R60     9     0.000000     2.510400     3
   CG311    CG311    CG321   OG3R60     9   180.000000     0.334720     4
   CG311    CG311    CG321    SG3O2     9   180.000000     1.506240     1
   CG311    CG311    CG321    SG3O2     9   180.000000     3.765600     2
   CG311    CG311    CG321    SG3O2     9     0.000000     0.711280     3
   CG311    CG311    CG321     HGA2     9     0.000000     0.815880     3
   CG311    CG311    CG324    NG3P1     9     0.000000     0.836800     3
   CG311    CG311    CG324    NG3P2     9     0.000000     0.836800     3
   CG311    CG311    CG324     HGA2     9     0.000000     0.836800     3
   CG311    CG311    CG331     HGA3     9     0.000000     0.836800     3
   CG311    CG311   CG3C50   CG3C52     9   180.000000     2.092000     4
   CG311    CG311   CG3C50   OG3C61     9     0.000000     2.175680     3
   CG311    CG311   CG3C51   CG3C52     9   180.000000     2.092000     4
   CG311    CG311   CG3C51   OG3C51     9     0.000000     2.928800     3
   CG311    CG311   CG3C51   OG3C51     9     0.000000     2.594080     4
   CG311    CG311   CG3C51     HGA1     9     0.000000     0.836800     3
   CG311    CG311   CG3RC1   CG3C52     9     0.000000     0.627600     3
   CG311    CG311   CG3RC1   CG3RC1     9     0.000000     0.627600     3
   CG311    CG311   CG3RC1    NG3P2     9     0.000000     2.886960     3
   CG311    CG311   CG3RC1   OG3C31     9     0.000000     0.711280     1
   CG311    CG311   CG3RC1   OG3C31     9     0.000000     3.138000     3
   CG311    CG311   CG3RC1   OG3C31     9     0.000000     1.171520     6
   CG311    CG311   CG3RC1     HGA1     9     0.000000     0.627600     3
   CG311    CG311    NG2D1   CG2DC1     9     0.000000     2.552240     1
   CG311    CG311    NG2D1   CG2DC1     9   180.000000     2.594080     2
   CG311    CG311    NG2D1   CG2DC1     9     0.000000     1.046000     3
   CG311    CG311    NG2D1   CG2DC1     9     0.000000     2.510400     4
   CG311    CG311    NG2D1   CG2DC1     9     0.000000     1.046000     6
   CG311    CG311    NG2D1   CG2DC2     9     0.000000     2.552240     1
   CG311    CG311    NG2D1   CG2DC2     9   180.000000     2.594080     2
   CG311    CG311    NG2D1   CG2DC2     9     0.000000     1.046000     3
   CG311    CG311    NG2D1   CG2DC2     9     0.000000     2.510400     4
   CG311    CG311    NG2D1   CG2DC2     9     0.000000     1.046000     6
   CG311    CG311   NG2R51   CG2R51     9     0.000000     1.631760     1
   CG311    CG311   NG2R51   CG2R51     9     0.000000     1.757280     2
   CG311    CG311   NG2R51   CG2R51     9     0.000000     0.334720     3
   CG311    CG311   NG2R51   CG2R51     9     0.000000     0.251040     4
   CG311    CG311   NG2R51   CG2R53     9     0.000000     1.631760     1
   CG311    CG311   NG2R51   CG2R53     9     0.000000     1.757280     2
   CG311    CG311   NG2R51   CG2R53     9     0.000000     0.334720     3
   CG311    CG311   NG2R51   CG2R53     9     0.000000     0.251040     4
   CG311    CG311   NG2R51   CG2RC0     9     0.000000     1.631760     1
   CG311    CG311   NG2R51   CG2RC0     9     0.000000     1.757280     2
   CG311    CG311   NG2R51   CG2RC0     9     0.000000     0.334720     3
   CG311    CG311   NG2R51   CG2RC0     9     0.000000     0.251040     4
   CG311    CG311   NG2R51   NG2R50     9   180.000000     1.631760     1
   CG311    CG311   NG2R51   NG2R50     9     0.000000     1.757280     2
   CG311    CG311   NG2R51   NG2R50     9   180.000000     0.334720     3
   CG311    CG311   NG2R51   NG2R50     9     0.000000     0.251040     4
   CG311    CG311    NG2S0    CG2O1     9     0.000000     7.531200     1
   CG311    CG311    NG2S0    CG2O6     9     0.000000     0.000000     3
   CG311    CG311    NG2S0    CG311     9     0.000000    12.803040     1
   CG311    CG311    NG2S0    CG311     9   180.000000     0.460240     2
   CG311    CG311    NG2S0    CG321     9     0.000000    12.803040     1
   CG311    CG311    NG2S0    CG321     9   180.000000     0.460240     2
   CG311    CG311    NG2S0    CG331     9     0.000000    12.803040     1
   CG311    CG311    NG2S0    CG331     9   180.000000     0.460240     2
   CG311    CG311    NG2S0   CG3C31     9     0.000000     0.460240     1
   CG311    CG311    NG2S0   CG3C31     9   180.000000     2.092000     2
   CG311    CG311    NG2S1    CG2O1     9     0.000000     7.531200     1
   CG311    CG311    NG2S1    CG2O6     9     0.000000     7.531200     1
   CG311    CG311    NG2S1     HGP1     9     0.000000     0.000000     1
   CG311    CG311    NG301   CG2R64     9     0.000000     0.251040     2
   CG311    CG311    NG301   CG2R64     9     0.000000     1.966480     3
   CG311    CG311    NG301    CG321     9     0.000000     1.046000     1
   CG311    CG311    NG301    CG321     9     0.000000     4.895280     2
   CG311    CG311    NG301    CG321     9   180.000000     0.543920     3
   CG311    CG311    NG301    CG331     9   180.000000     1.380720     1
   CG311    CG311    NG301    CG331     9   180.000000     0.418400     2
   CG311    CG311    NG301    CG331     9   180.000000     0.167360     3
   CG311    CG311    NG301    CG331     9     0.000000     1.046000     4
   CG311    CG311    NG301    SG3O2     9     0.000000     0.418400     1
   CG311    CG311    NG301    SG3O2     9     0.000000     2.928800     2
   CG311    CG311    NG301    SG3O2     9     0.000000     0.418400     3
   CG311    CG311    NG311   CG2D1O     9     0.000000     1.255200     1
   CG311    CG311    NG311   CG2D1O     9   180.000000     0.836800     3
   CG311    CG311    NG311   CG2D1O     9     0.000000     0.376560     4
   CG311    CG311    NG311   CG2D2O     9     0.000000     1.255200     1
   CG311    CG311    NG311   CG2D2O     9   180.000000     0.836800     3
   CG311    CG311    NG311   CG2D2O     9     0.000000     0.376560     4
   CG311    CG311    NG311   CG2R61     9   180.000000     3.347200     1
   CG311    CG311    NG311   CG2R61     9     0.000000     4.602400     3
   CG311    CG311    NG311   CG2R62     9   180.000000     3.347200     1
   CG311    CG311    NG311   CG2R62     9     0.000000     4.602400     3
   CG311    CG311    NG311   CG2R64     9   180.000000     3.347200     1
   CG311    CG311    NG311   CG2R64     9     0.000000     4.602400     3
   CG311    CG311    NG311    CG311     9     0.000000     3.681920     1
   CG311    CG311    NG311    CG311     9     0.000000     6.568880     2
   CG311    CG311    NG311    CG311     9   180.000000     3.681920     3
   CG311    CG311    NG311    CG321     9   180.000000     5.941280     1
   CG311    CG311    NG311    CG321     9     0.000000     3.430880     2
   CG311    CG311    NG311    CG321     9     0.000000     4.267680     3
   CG311    CG311    NG311    CG331     9   180.000000     0.502080     1
   CG311    CG311    NG311    CG331     9   180.000000     3.012480     2
   CG311    CG311    NG311    CG331     9     0.000000     0.920480     3
   CG311    CG311    NG311   HGPAM1     9     0.000000     1.255200     3
   CG311    CG311    NG321   HGPAM2     9   180.000000     2.092000     1
   CG311    CG311    NG321   HGPAM2     9     0.000000     1.673600     3
   CG311    CG311   NG3C51   CG3C52     9   180.000000     0.962320     1
   CG311    CG311   NG3C51   CG3C52     9     0.000000     6.485200     2
   CG311    CG311    OG301    CG321     9     0.000000     1.673600     1
   CG311    CG311    OG301    CG321     9     0.000000     2.050160     3
   CG311    CG311    OG301    CG331     9     0.000000     1.673600     1
   CG311    CG311    OG301    CG331     9     0.000000     2.050160     3
   CG311    CG311    OG301    OG311     9   180.000000     4.602400     1
   CG311    CG311    OG301    OG311     9     0.000000     2.092000     3
   CG311    CG311    OG311     HGP1     9     0.000000     5.564720     1
   CG311    CG311    OG311     HGP1     9     0.000000     0.753120     2
   CG311    CG311    OG311     HGP1     9     0.000000     1.924640     3
   CG311    CG311   OG3C61    CG311     9   180.000000     2.217520     1
   CG311    CG311   OG3C61    CG311     9     0.000000     2.845120     2
   CG311    CG311   OG3C61    CG311     9   180.000000     0.878640     3
   CG311    CG311   OG3C61    CG311     9     0.000000     0.627600     4
   CG311    CG311   OG3C61    CG321     9   180.000000     2.217520     1
   CG311    CG311   OG3C61    CG321     9     0.000000     2.845120     2
   CG311    CG311   OG3C61    CG321     9   180.000000     0.878640     3
   CG311    CG311   OG3C61    CG321     9     0.000000     0.627600     4
   CG311    CG311   OG3R60    CG2O6     9     0.000000     0.794960     1
   CG311    CG311   OG3R60    CG2O6     9   180.000000     2.510400     4
   CG311    CG311    SG311    CG311     9   180.000000     1.004160     1
   CG311    CG311    SG311    CG311     9     0.000000     1.548080     3
   CG311    CG311    SG311    CG321     9   180.000000     1.004160     1
   CG311    CG311    SG311    CG321     9     0.000000     1.548080     3
   CG311    CG311    SG3O2    CG311     9     0.000000     3.765600     1
   CG311    CG311    SG3O2    CG311     9     0.000000     1.464400     2
   CG311    CG311    SG3O2    CG311     9     0.000000     0.502080     3
   CG311    CG311    SG3O2    CG321     9     0.000000     3.765600     1
   CG311    CG311    SG3O2    CG321     9     0.000000     1.464400     2
   CG311    CG311    SG3O2    CG321     9     0.000000     0.502080     3
   CG311    CG311    SG3O2    OG2P1     9     0.000000     0.753120     3
   CG311    CG311    SG3O3    CG321     9     0.000000     0.083680     1
   CG311    CG311    SG3O3    CG321     9   180.000000     0.083680     3
   CG311    CG311    SG3O3    OG2P1     9     0.000000     0.251040     1
   CG311    CG311    SG3O3    OG2P1     9   180.000000     1.715440     2
   CG311    CG311    SG3O3    OG2P1     9     0.000000    11.171280     3
   CG311    CG311      CT1        C     9     0.000000     0.836800     3
   CG311    CG311     CTD1        C     9     0.000000     0.836800     3
   CG311    CG312    CG321    CG324     9   180.000000     0.292880     3
   CG311    CG312    CG321     HGA2     9     0.000000     0.000000     3
   CG311    CG312    CG324    NG3P1     9   180.000000     0.000000     3
   CG311    CG312    CG324     HGA2     9     0.000000     0.000000     3
   CG311    CG314    CG321    CG2D1     9     0.000000     0.836800     3
   CG311    CG314    CG321    CG311     9     0.000000     0.836800     3
   CG311    CG314    CG321    CG321     9     0.000000     0.836800     3
   CG311    CG314    CG321    CG324     9     0.000000     0.836800     3
   CG311    CG314    CG321     HGA2     9     0.000000     0.836800     3
   CG311    CG314    CG331     HGA3     9     0.000000     0.836800     3
   CG311    CG314    NG3P1    CG324     9     0.000000     0.418400     3
   CG311    CG314    NG3P1    CG334     9     0.000000     0.418400     3
   CG311    CG314    NG3P1     HGP2     9     0.000000     0.418400     3
   CG311    CG314    NG3P2    CG314     9     0.000000     0.418400     3
   CG311    CG314    NG3P2    CG324     9     0.000000     0.418400     3
   CG311    CG314    NG3P2     HGP2     9     0.000000     0.418400     3
   CG311    CG314    NG3P3     HGP2     9     0.000000     0.418400     3
   CG311    CG314    OG311     HGP1     9     0.000000     5.564720     1
   CG311    CG314    OG311     HGP1     9     0.000000     0.753120     2
   CG311    CG314    OG311     HGP1     9     0.000000     1.924640     3
   CG311    CG314   OG3C61    CG321     9   180.000000     2.217520     1
   CG311    CG314   OG3C61    CG321     9     0.000000     2.845120     2
   CG311    CG314   OG3C61    CG321     9   180.000000     0.878640     3
   CG311    CG314   OG3C61    CG321     9     0.000000     0.627600     4
   CG311    CG321    CG321    CG311     9     0.000000     0.815880     3
   CG311    CG321    CG321    CG314     9     0.000000     0.836800     3
   CG311    CG321    CG321    CG321     9     0.000000     2.092000     3
   CG311    CG321    CG321    CG321     9   180.000000     2.092000     6
   CG311    CG321    CG321    CG324     9     0.000000     0.815880     3
   CG311    CG321    CG321   CG3C31     9     0.000000     0.627600     3
   CG311    CG321    CG321   CG3C50     9     0.000000     1.673600     3
   CG311    CG321    CG321   CG3RC1     9     0.000000     0.627600     3
   CG311    CG321    CG321   NG2R61     9     0.000000     0.836800     3
   CG311    CG321    CG321    NG2S1     9     0.000000     0.836800     3
   CG311    CG321    CG321    NG301     9   180.000000     0.669440     1
   CG311    CG321    CG321    NG301     9     0.000000     1.631760     2
   CG311    CG321    CG321    NG311     9     0.000000     1.255200     3
   CG311    CG321    CG321   OG3C61     9   180.000000     0.794960     1
   CG311    CG321    CG321   OG3C61     9   180.000000     4.184000     2
   CG311    CG321    CG321   OG3C61     9     0.000000     2.510400     3
   CG311    CG321    CG321   OG3C61     9   180.000000     0.334720     4
   CG311    CG321    CG321    SG311     9     0.000000     0.815880     3
   CG311    CG321    CG321    SG3O2     9   180.000000     3.932960     1
   CG311    CG321    CG321    SG3O2     9     0.000000     1.589920     2
   CG311    CG321    CG321    SG3O2     9     0.000000     0.460240     3
   CG311    CG321    CG321    BRGA1     9   180.000000     4.024171     1
   CG311    CG321    CG321    BRGA1     9   180.000000     0.501662     3
   CG311    CG321    CG321     HGA2     9     0.000000     0.815880     3
   CG311    CG321    CG321    OG303     9     0.000000     0.815880     3
   CG311    CG321    CG322    CG321     9     0.000000     4.351360     3
   CG311    CG321    CG322    CG321     9   180.000000     1.464400     4
   CG311    CG321    CG322     FGA1     9   180.000000     1.422560     3
   CG311    CG321    CG322     HGA6     9   180.000000     0.083680     3
   CG311    CG321    CG324   NG2R52     9     0.000000     0.836800     3
   CG311    CG321    CG324    NG3P1     9     0.000000     4.184000     3
   CG311    CG321    CG324    NG3P2     9     0.000000     4.184000     3
   CG311    CG321    CG324    NG3P3     9     0.000000     0.815880     3
   CG311    CG321    CG324     HGA2     9     0.000000     0.815880     3
   CG311    CG321    CG331     HGA3     9     0.000000     0.669440     3
   CG311    CG321   CG3C41   CG3C41     9   180.000000     3.849280     3
   CG311    CG321   CG3C41   CG3C41     9   180.000000     4.142160     4
   CG311    CG321   CG3C41    NG311     9   180.000000     1.087840     3
   CG311    CG321   CG3C41    NG311     9     0.000000     2.133840     4
   CG311    CG321   CG3C50   CG3C52     9   180.000000     0.878640     4
   CG311    CG321   CG3C50   CG3C52     9     0.000000     1.046000     6
   CG311    CG321   CG3C50    NG3P2     9   180.000000     3.138000     3
   CG311    CG321   CG3C50    NG3P2     9   180.000000     2.970640     4
   CG311    CG321   CG3C51   CG2R53     9   180.000000     3.347200     4
   CG311    CG321   CG3C51   CG3C51     9   180.000000     2.092000     4
   CG311    CG321   CG3C51     HGA1     9     0.000000     0.836800     3
   CG311    CG321   CG3RC1    CG2O5     9   180.000000     4.518720     4
   CG311    CG321   CG3RC1   CG3C50     9     0.000000     0.669440     3
   CG311    CG321   CG3RC1   CG3C52     9     0.000000     0.836800     3
   CG311    CG321   CG3RC1   CG3RC1     9     0.000000     0.627600     3
   CG311    CG321   CG3RC1    NG3P2     9     0.000000     1.004160     3
   CG311    CG321   CG3RC1   OG3C51     9   180.000000     9.037440     2
   CG311    CG321   CG3RC1   OG3C51     9   180.000000     0.000000     3
   CG311    CG321   CG3RC1    SG311     9   180.000000     0.292880     2
   CG311    CG321   CG3RC1    SG311     9     0.000000     6.485200     3
   CG311    CG321   CG3RC1    SG3O2     9     0.000000     1.213360     1
   CG311    CG321   CG3RC1    SG3O2     9     0.000000     2.343040     2
   CG311    CG321   CG3RC1    SG3O2     9   180.000000     1.589920     3
   CG311    CG321   CG3RC1     HGA1     9     0.000000     0.627600     3
   CG311    CG321    NG2D1    CG2O1     9     0.000000     2.759348     1
   CG311    CG321    NG2D1    CG2O1     9     0.000000     0.208363     2
   CG311    CG321    NG2D1    CG2O1     9   180.000000     6.755068     3
   CG311    CG321   NG2R51   CG2R51     9     0.000000     1.631760     1
   CG311    CG321   NG2R51   CG2R51     9     0.000000     1.757280     2
   CG311    CG321   NG2R51   CG2R51     9     0.000000     0.334720     3
   CG311    CG321   NG2R51   CG2R51     9     0.000000     0.251040     4
   CG311    CG321   NG2R51   CG2R53     9     0.000000     1.631760     1
   CG311    CG321   NG2R51   CG2R53     9     0.000000     1.757280     2
   CG311    CG321   NG2R51   CG2R53     9     0.000000     0.334720     3
   CG311    CG321   NG2R51   CG2R53     9     0.000000     0.251040     4
   CG311    CG321   NG2R61   CG2R61     9     0.000000     7.070960     1
   CG311    CG321   NG2R61   CG2R62     9     0.000000     7.070960     1
   CG311    CG321   NG2R61   CG2R63     9     0.000000     7.280160     1
   CG311    CG321   NG2R61   CG2R64     9     0.000000     7.280160     1
   CG311    CG321    NG2S0    CG2O1     9     0.000000     7.531200     1
   CG311    CG321    NG2S0    CG2O6     9     0.000000     0.000000     3
   CG311    CG321    NG2S0   CG2R61     9     0.000000    14.267440     1
   CG311    CG321    NG2S0   CG2R61     9     0.000000     3.138000     3
   CG311    CG321    NG2S0    CG321     9     0.000000     5.913666     1
   CG311    CG321    NG2S0    CG321     9     0.000000     5.360541     2
   CG311    CG321    NG2S0    CG331     9   180.000000     0.418400     3
   CG311    CG321    NG2S0     CN7B     9     0.000000     0.418400     1
   CG311    CG321    NG2S1    CG2O1     9     0.000000     7.531200     1
   CG311    CG321    NG2S1    CG2O6     9   180.000000     1.464400     1
   CG311    CG321    NG2S1    CG2O6     9     0.000000     3.138000     2
   CG311    CG321    NG2S1    CG2O6     9     0.000000     0.627600     4
   CG311    CG321    NG2S1     HGP1     9     0.000000     0.000000     1
   CG311    CG321    NG301   CG2R61     9   180.000000     1.840960     1
   CG311    CG321    NG301   CG2R61     9     0.000000     0.125520     2
   CG311    CG321    NG301   CG2R61     9     0.000000     0.041840     3
   CG311    CG321    NG301   CG2R62     9   180.000000     1.840960     1
   CG311    CG321    NG301   CG2R62     9     0.000000     0.125520     2
   CG311    CG321    NG301   CG2R62     9     0.000000     0.041840     3
   CG311    CG321    NG301   CG2R64     9     0.000000     0.251040     2
   CG311    CG321    NG301   CG2R64     9     0.000000     1.966480     3
   CG311    CG321    NG301    CG311     9   180.000000     5.941280     1
   CG311    CG321    NG301    CG311     9     0.000000     3.430880     2
   CG311    CG321    NG301    CG311     9     0.000000     4.267680     3
   CG311    CG321    NG301    CG321     9   180.000000     5.941280     1
   CG311    CG321    NG301    CG321     9     0.000000     3.430880     2
   CG311    CG321    NG301    CG321     9     0.000000     4.267680     3
   CG311    CG321    NG301    CG331     9   180.000000     5.941280     1
   CG311    CG321    NG301    CG331     9     0.000000     3.430880     2
   CG311    CG321    NG301    CG331     9     0.000000     4.267680     3
   CG311    CG321    NG311    CG311     9   180.000000     5.941280     1
   CG311    CG321    NG311    CG311     9     0.000000     3.430880     2
   CG311    CG321    NG311    CG311     9     0.000000     4.267680     3
   CG311    CG321    NG311    CG321     9   180.000000     5.941280     1
   CG311    CG321    NG311    CG321     9     0.000000     3.430880     2
   CG311    CG321    NG311    CG321     9     0.000000     4.267680     3
   CG311    CG321    NG311    SG3O2     9     0.000000     0.418400     1
   CG311    CG321    NG311    SG3O2     9     0.000000     2.928800     2
   CG311    CG321    NG311    SG3O2     9     0.000000     0.418400     3
   CG311    CG321    NG311     HGP1     9     0.000000     0.418400     3
   CG311    CG321    NG311   HGPAM1     9     0.000000     1.255200     3
   CG311    CG321    NG321   HGPAM2     9     0.000000     3.347200     3
   CG311    CG321   NG3C51   CG3C51     9   180.000000    12.920610     1
   CG311    CG321   NG3C51   CG3C51     9   180.000000     1.549754     2
   CG311    CG321   NG3C51   CG3C51     9     0.000000     1.264823     3
   CG311    CG321   NG3C51   CG3C52     9   180.000000     0.946002     1
   CG311    CG321   NG3C51   CG3C52     9     0.000000     6.478924     2
   CG311    CG321    NG3N1    CG331     9   180.000000     0.000000     1
   CG311    CG321    NG3N1    CG331     9   180.000000     2.092000     2
   CG311    CG321    NG3N1    CG331     9     0.000000     1.004160     3
   CG311    CG321    NG3N1    NG3N1     9     0.000000     0.669440     1
   CG311    CG321    NG3N1    NG3N1     9   180.000000     0.125520     2
   CG311    CG321    NG3N1    NG3N1     9   180.000000     0.209200     3
   CG311    CG321    OG301    CG321     9     0.000000     2.384880     1
   CG311    CG321    OG301    CG321     9     0.000000     1.213360     2
   CG311    CG321    OG301    CG321     9     0.000000     1.799120     3
   CG311    CG321    OG302    CG2O2     9     0.000000     0.000000     3
   CG311    CG321    OG303      PG1     9   180.000000     2.510400     1
   CG311    CG321    OG303      PG1     9     0.000000     2.719600     2
   CG311    CG321    OG303      PG1     9     0.000000     0.209200     3
   CG311    CG321    OG303      PG2     9   180.000000     2.510400     1
   CG311    CG321    OG303      PG2     9     0.000000     2.719600     2
   CG311    CG321    OG303      PG2     9     0.000000     0.209200     3
   CG311    CG321    OG311     HGP1     9     0.000000     4.727920     1
   CG311    CG321    OG311     HGP1     9     0.000000     0.585760     2
   CG311    CG321    OG311     HGP1     9     0.000000     1.004160     3
   CG311    CG321   OG3C61    CG301     9   180.000000     2.217520     1
   CG311    CG321   OG3C61    CG301     9     0.000000     2.845120     2
   CG311    CG321   OG3C61    CG301     9   180.000000     0.878640     3
   CG311    CG321   OG3C61    CG301     9     0.000000     0.627600     4
   CG311    CG321   OG3C61    CG311     9   180.000000     2.217520     1
   CG311    CG321   OG3C61    CG311     9     0.000000     2.845120     2
   CG311    CG321   OG3C61    CG311     9   180.000000     0.878640     3
   CG311    CG321   OG3C61    CG311     9     0.000000     0.627600     4
   CG311    CG321   OG3C61    CG314     9   180.000000     0.669440     1
   CG311    CG321   OG3C61    CG314     9   180.000000     1.338880     2
   CG311    CG321   OG3C61    CG314     9   180.000000     0.292880     3
   CG311    CG321   OG3C61    CG314     9     0.000000     1.213360     4
   CG311    CG321   OG3C61    CG321     9   180.000000     2.217520     1
   CG311    CG321   OG3C61    CG321     9     0.000000     2.845120     2
   CG311    CG321   OG3C61    CG321     9   180.000000     0.878640     3
   CG311    CG321   OG3C61    CG321     9     0.000000     0.627600     4
   CG311    CG321   OG3C61   CG3C50     9     0.000000     1.840960     1
   CG311    CG321   OG3C61   CG3C50     9     0.000000     4.853440     2
   CG311    CG321   OG3C61   CG3C50     9     0.000000     5.313680     3
   CG311    CG321   OG3C61   CG3C50     9   180.000000     3.263520     4
   CG311    CG321   OG3R60    CG2O6     9   180.000000     0.292880     1
   CG311    CG321   OG3R60    CG2O6     9     0.000000     9.832400     2
   CG311    CG321   OG3R60    CG2O6     9   180.000000     0.251040     3
   CG311    CG321    SG311   CG2R62     9     0.000000     0.627600     1
   CG311    CG321    SG311   CG2R62     9     0.000000     0.041840     2
   CG311    CG321    SG311   CG2R62     9     0.000000     0.920480     3
   CG311    CG321    SG311    CG301     9   180.000000     1.004160     1
   CG311    CG321    SG311    CG301     9     0.000000     1.548080     3
   CG311    CG321    SG311    CG321     9   180.000000     1.004160     1
   CG311    CG321    SG311    CG321     9     0.000000     1.548080     3
   CG311    CG321    SG311     HGP3     9     0.000000     1.004160     1
   CG311    CG321    SG311     HGP3     9     0.000000     0.627600     2
   CG311    CG321    SG311     HGP3     9     0.000000     1.129680     3
   CG311    CG321    SG3O2    CG321     9     0.000000     3.765600     1
   CG311    CG321    SG3O2    CG321     9     0.000000     1.464400     2
   CG311    CG321    SG3O2    CG321     9     0.000000     0.502080     3
   CG311    CG321    SG3O2    NG311     9     0.000000     0.418400     1
   CG311    CG321    SG3O2    NG311     9     0.000000     1.673600     2
   CG311    CG321    SG3O2    NG311     9     0.000000     1.506240     3
   CG311    CG321    SG3O2    OG2P1     9     0.000000     0.753120     3
   CG311    CG321    SG3O3    CG2O4     9   180.000000     2.677760     1
   CG311    CG321    SG3O3    CG2O4     9   180.000000    19.079040     2
   CG311    CG321    SG3O3    CG2O4     9     0.000000     1.171520     3
   CG311    CG321    SG3O3    CG321     9   180.000000     0.753120     1
   CG311    CG321    SG3O3    CG321     9     0.000000     2.384880     3
   CG311    CG321    SG3O3    CG331     9   180.000000     0.753120     1
   CG311    CG321    SG3O3    CG331     9     0.000000     2.384880     3
   CG311    CG321    SG3O3    OG2P1     9   180.000000     6.694400     1
   CG311    CG321    SG3O3    OG2P1     9   180.000000     1.004160     2
   CG311    CG321    SG3O3    OG2P1     9   180.000000     0.125520     3
   CG311    CG321    CG2O1      NH1     9     0.000000     0.000000     1
   CG311    CG321    CG2O1        N     9     0.000000     0.000000     1
   CG311    CG321      CT1        C     9     0.000000     0.836800     3
   CG311    CG321     CTD1        C     9     0.000000     0.836800     3
   CG311    CG322    CG324    NG3P2     9     0.000000    15.313440     3
   CG311    CG322    CG324     HGA2     9     0.000000     0.753120     3
   CG311    CG324    NG2P1    CG2N1     9   180.000000     0.000000     6
   CG311    CG324    NG2P1    CG2N2     9   180.000000     0.000000     6
   CG311    CG324    NG2P1     HGP2     9   180.000000     0.000000     6
   CG311    CG324   NG2R52   CG2R51     9   180.000000     7.907760     2
   CG311    CG324   NG2R52   CG2R51     9   180.000000     2.426720     3
   CG311    CG324   NG2R52   CG2R53     9     0.000000     0.585760     2
   CG311    CG324   NG2R52   CG2R53     9   180.000000     6.987280     3
   CG311    CG324    NG3P1   CG2D1O     9     0.000000     1.548080     2
   CG311    CG324    NG3P1   CG2D1O     9     0.000000     0.000000     3
   CG311    CG324    NG3P1   CG2D2O     9     0.000000     1.548080     2
   CG311    CG324    NG3P1   CG2D2O     9     0.000000     0.000000     3
   CG311    CG324    NG3P1    CG314     9     0.000000     0.418400     3
   CG311    CG324    NG3P1    CG324     9     0.000000     0.418400     3
   CG311    CG324    NG3P1    CG334     9     0.000000     0.418400     3
   CG311    CG324    NG3P1     HGP2     9     0.000000     0.418400     3
   CG311    CG324    NG3P2    CG314     9     0.000000     1.673600     1
   CG311    CG324    NG3P2    CG314     9     0.000000     1.046000     2
   CG311    CG324    NG3P2    CG314     9     0.000000     2.510400     3
   CG311    CG324    NG3P2    CG324     9     0.000000     1.673600     1
   CG311    CG324    NG3P2    CG324     9     0.000000     1.046000     2
   CG311    CG324    NG3P2    CG324     9     0.000000     2.510400     3
   CG311    CG324    NG3P2     HGP2     9     0.000000     0.418400     3
   CG311    CG324    NG3P3     HGP2     9     0.000000     0.418400     3
   CG311   CG3C31   CG3C31   CG3C31     9     0.000000     0.460240     3
   CG311   CG3C31   CG3C31   CG3C31     9   180.000000     1.087840     6
   CG311   CG3C31   CG3C31     HGA2     9   180.000000     0.836800     5
   CG311   CG3C41   CG3C41   CG3C41     9     0.000000     0.711280     3
   CG311   CG3C41   CG3C41   CG3C41     9   180.000000     3.598240     4
   CG311   CG3C41   CG3C41     HGA2     9     0.000000     0.000000     3
   CG311   CG3C50   CG3C52   CG3C52     9     0.000000     0.794960     3
   CG311   CG3C50   CG3C52     HGA2     9     0.000000     0.794960     3
   CG311   CG3C50   OG3C51   CG3C52     9     0.000000     1.255200     3
   CG311   CG3C50   OG3C61    CG321     9     0.000000     1.548080     1
   CG311   CG3C50   OG3C61    CG321     9     0.000000     6.819920     3
   CG311   CG3C50    SG311   CG3C52     9     0.000000     1.129680     1
   CG311   CG3C50    SG311   CG3C52     9     0.000000     1.046000     3
   CG311   CG3C51   CG3C51    OG311     9     0.000000     0.585760     3
   CG311   CG3C51   CG3C51   OG3C51     9   180.000000    16.359440     3
   CG311   CG3C51   CG3C51   OG3C51     9   180.000000     4.644240     4
   CG311   CG3C51   CG3C51     HGA1     9     0.000000     0.794960     3
   CG311   CG3C51   CG3C52   CG3C52     9     0.000000     0.794960     3
   CG311   CG3C51   CG3C52   OG3C51     9   180.000000     1.757280     3
   CG311   CG3C51   CG3C52   OG3C51     9   180.000000     0.376560     6
   CG311   CG3C51   CG3C52     HGA2     9     0.000000     0.794960     3
   CG311   CG3C51   CG3C53   CG3C54     9   180.000000     1.631760     3
   CG311   CG3C51   CG3C53   CG3C54     9     0.000000     3.263520     6
   CG311   CG3C51   CG3C53    NG3P3     9   180.000000     0.000000     3
   CG311   CG3C51   CG3C53    NG3P3     9     0.000000     1.548080     4
   CG311   CG3C51   CG3C53    NG3P3     9     0.000000     1.380720     6
   CG311   CG3C51   CG3C53     HGA1     9     0.000000     0.794960     3
   CG311   CG3C51   CG3C54    NG3P2     9     0.000000     0.292880     3
   CG311   CG3C51   CG3C54    NG3P2     9   180.000000     3.179840     4
   CG311   CG3C51   CG3C54     HGA2     9     0.000000     0.794960     3
   CG311   CG3C51   CG3RC1    CG311     9     0.000000     0.661072     3
   CG311   CG3C51   CG3RC1    CG321     9     0.000000     0.209200     3
   CG311   CG3C51   CG3RC1    CG331     9     0.000000     0.661072     3
   CG311   CG3C51   CG3RC1   CG3RC1     9     0.000000     0.661072     3
   CG311   CG3C51   CG3RC1   OG3C51     9   180.000000     2.635920     3
   CG311   CG3C51   CG3RC1   OG3C51     9   180.000000     1.422560     4
   CG311   CG3C51   CG3RC1   OG3C51     9   180.000000     0.209200     6
   CG311   CG3C51   CG3RC1     HGA1     9     0.000000     0.000000     3
   CG311   CG3C51   NG2R53   CG2R53     9   180.000000     1.087840     3
   CG311   CG3C51   NG2R53     HGP1     9   180.000000     0.920480     3
   CG311   CG3C51   NG3C51    CG331     9   180.000000    10.334480     3
   CG311   CG3C51   NG3C51    CG331     9   180.000000     0.041840     6
   CG311   CG3C51   NG3C51   CG3C52     9     0.000000    13.054080     3
   CG311   CG3C51   OG3C51   CG3C51     9     0.000000     0.292880     3
   CG311   CG3C51   OG3C51   CG3C51     9     0.000000     0.836800     6
   CG311   CG3C51   OG3C51   CG3C52     9     0.000000     1.255200     3
   CG311   CG3C53    NG3P2   CG3C54     9   180.000000     0.502080     3
   CG311   CG3C53    NG3P2   CG3C54     9   180.000000     0.376560     6
   CG311   CG3C53    NG3P2     HGP2     9     0.000000     2.384880     3
   CG311   CG3C53    NG3P2     HGP2     9   180.000000     0.962320     6
   CG311   CG3RC1   CG3RC1    CG311     9     0.000000     0.627600     3
   CG311   CG3RC1   CG3RC1    CG321     9     0.000000    16.736000     3
   CG311   CG3RC1   CG3RC1    CG331     9     0.000000     0.661072     3
   CG311   CG3RC1   CG3RC1   CG3C31     9     0.000000     0.627600     3
   CG311   CG3RC1   CG3RC1   CG3C41     9   180.000000    20.083200     2
   CG311   CG3RC1   CG3RC1   CG3C41     9     0.000000     6.317840     3
   CG311   CG3RC1   CG3RC1   CG3C51     9     0.000000     0.627600     3
   CG311   CG3RC1   CG3RC1   CG3C52     9     0.000000     0.627600     3
   CG311   CG3RC1   CG3RC1   CG3RC1     9     0.000000     0.000000     2
   CG311   CG3RC1   CG3RC1   CG3RC1     9     0.000000     2.845120     3
   CG311   CG3RC1   CG3RC1   OG3C31     9     0.000000    11.464160     2
   CG311   CG3RC1   CG3RC1   OG3C31     9   180.000000     9.288480     4
   CG311   CG3RC1   CG3RC1   OG3C51     9     0.000000     9.623200     2
   CG311   CG3RC1   CG3RC1   OG3C51     9   180.000000     2.845120     3
   CG311   CG3RC1   CG3RC1     HGA1     9     0.000000     0.627600     3
   CG311   CG3RC1    NG2S0    CG2O1     9   180.000000     0.418400     3
   CG311   CG3RC1    NG2S0    CG2O1     9     0.000000    11.422320     4
   CG311   CG3RC1    NG2S0   CG3C52     9   180.000000     2.092000     3
   CG311   CG3RC1    NG2S0   CG3C52     9   180.000000     2.928800     4
   CG311   CG3RC1    NG3P2   CG3RC1     9   180.000000     0.292880     1
   CG311   CG3RC1    NG3P2   CG3RC1     9   180.000000     0.669440     2
   CG311   CG3RC1    NG3P2   CG3RC1     9     0.000000     0.334720     3
   CG311   CG3RC1    NG3P2     HGP2     9     0.000000     5.690240     3
   CG311   CG3RC1    OG311     HGP1     9     0.000000     1.840960     1
   CG311   CG3RC1    OG311     HGP1     9     0.000000     0.460240     2
   CG311   CG3RC1    OG311     HGP1     9     0.000000     2.468560     3
   CG311   CG3RC1   OG3C31   CG3RC1     9     0.000000     1.213360     3
   CG311   CG3RC1   OG3C31   CG3RC1     9     0.000000     1.297040     4
   CG311   CG3RC1   OG3C51   CG2R53     9   180.000000     2.845120     3
   CG311    NG301    OG311     HGP1     9     0.000000    11.213120     2
   CG311    NG301    OG311     HGP1     9   180.000000     2.845120     3
   CG311    NG301    SG3O2    CG331     9     0.000000     8.368000     2
   CG311    NG301    SG3O2    CG331     9     0.000000     1.255200     3
   CG311    NG301    SG3O2    OG2P1     9     0.000000     0.836800     3
   CG311    NG311   OG3R60   CG2R61     9   180.000000     3.012480     3
   CG311   NG3C51   OG3C51   CG3C52     9     0.000000     0.669440     3
   CG311   NG3C51   OG3C51   CG3C52     9     0.000000     0.460240     6
   CG311    NG3N1    NG3N1    CG321     9     0.000000    12.468320     2
   CG311    NG3N1    NG3N1    CG331     9     0.000000     3.263520     2
   CG311    NG3N1    NG3N1    CG331     9   180.000000     0.167360     6
   CG311    OG301    OG311     HGP1     9     0.000000     1.673600     1
   CG311    OG301    OG311     HGP1     9     0.000000     4.811600     2
   CG311    OG301    OG311     HGP1     9     0.000000     0.502080     3
   CG311    OG303      PG0    CG331     9     0.000000     4.981052     2
   CG311    OG303      PG0    CG331     9   180.000000     0.105018     3
   CG311    OG303      PG0    OG2P1     9     0.000000     0.418400     3
   CG311    OG303      PG0    OG303     9     0.000000     3.974800     2
   CG311    OG303      PG0    OG303     9     0.000000     2.092000     3
   CG311    OG303      PG2    OG2P1     9     0.000000     0.418400     3
   CG311    OG303    SG3O1    OG2P1     9     0.000000     0.000000     3
   CG311      CT1        C      NH1     9     0.000000     0.000000     1
   CG311      CT1        C        O     9     0.000000     5.857600     1
   CG311      CT1        C        N     9   180.000000    11.506000     2
   CG311      CT1        C        N     9     0.000000     1.255200     4
   CG311     CTD1        C      NH1     9     0.000000     0.000000     1
   CG311     CTD1        C        O     9     0.000000     5.857600     1
   CG314    CG2D1    CG2D1     HGA4     9   180.000000    27.284282     2
   CG314   CG2D1O    NG311    CG321     9     0.000000     1.380720     2
   CG314   CG2D1O    NG311    CG321     9   180.000000     1.631760     3
   CG314   CG2D1O    NG311   HGPAM1     9   180.000000    16.652320     2
   CG314   CG2D2O    NG311    CG321     9     0.000000     1.380720     2
   CG314   CG2D2O    NG311    CG321     9   180.000000     1.631760     3
   CG314   CG2D2O    NG311   HGPAM1     9   180.000000    16.652320     2
   CG314   CG2DC1    NG2D1    NG2P1     9   180.000000     2.970640     1
   CG314   CG2DC1    NG2D1    NG2P1     9   180.000000    25.647920     2
   CG314   CG2DC2    NG2D1    NG2P1     9   180.000000     2.970640     1
   CG314   CG2DC2    NG2D1    NG2P1     9   180.000000    25.647920     2
   CG314    CG2O1    NG2S0    CG321     9     0.000000    10.543680     1
   CG314    CG2O1    NG2S0    CG321     9     0.000000     0.460240     2
   CG314    CG2O1    NG2S0    CG331     9     0.000000     0.209200     1
   CG314    CG2O1    NG2S0    CG331     9   180.000000    10.711040     2
   CG314    CG2O1    NG2S0   CG3C51     9   180.000000    11.506000     2
   CG314    CG2O1    NG2S0   CG3C51     9     0.000000     1.255200     4
   CG314    CG2O1    NG2S0   CG3C52     9   180.000000    11.506000     2
   CG314    CG2O1    NG2S0   CG3C52     9     0.000000     1.255200     4
   CG314    CG2O1    NG2S1    CG311     9     0.000000     6.694400     1
   CG314    CG2O1    NG2S1    CG311     9   180.000000    10.460000     2
   CG314    CG2O1    NG2S1    CG321     9     0.000000     6.694400     1
   CG314    CG2O1    NG2S1    CG321     9   180.000000    10.460000     2
   CG314    CG2O1    NG2S1    CG331     9     0.000000     6.694400     1
   CG314    CG2O1    NG2S1    CG331     9   180.000000    10.460000     2
   CG314    CG2O1    NG2S1     HGP1     9   180.000000    10.460000     2
   CG314    CG2O1    NG2S2     HGP1     9   180.000000    10.460000     2
   CG314    CG2O5    CG321    CG321     9     0.000000     0.711280     1
   CG314    CG2O5    CG321    CG321     9     0.000000     3.012480     2
   CG314    CG2O5    CG321    CG321     9   180.000000     0.000000     3
   CG314    CG2O5    CG321    CG321     9   180.000000     1.715440     4
   CG314    CG2O5    CG321    CG321     9     0.000000     0.167360     6
   CG314    CG2O5    CG321     HGA2     9     0.000000     0.000000     3
   CG314   CG2R51   CG2R51    CG321     9   180.000000    11.840720     2
   CG314   CG2R51   CG2R51    CG331     9   180.000000     2.050160     2
   CG314   CG2R51   CG2R51   CG3C51     9   180.000000    27.662098     2
   CG314   CG2R51   CG2R51   NG2R50     9     0.000000     0.000000     2
   CG314   CG2R51   CG2R51   NG2R51     9   180.000000    12.552000     2
   CG314   CG2R51   CG2R51    HGR51     9   180.000000     9.162123     2
   CG314   CG2R51   CG2R52    CG331     9     0.000000     2.217520     2
   CG314   CG2R51   CG2R52   NG2R50     9   180.000000    13.137760     2
   CG314   CG2R51   NG2R51   CG2R53     9   180.000000    25.564240     2
   CG314   CG2R51   NG2R51     HGP1     9     0.000000     0.000000     2
   CG314   CG2R51   OG2R50   CG2RC0     9   180.000000     0.711280     2
   CG314   CG2R51   OG3C51   NG3C51     9   180.000000     1.086585     2
   CG314   CG2R51   SG2R50   CG2R51     9     0.000000     0.878640     2
   CG314   CG2R52   NG2R50   NG2R51     9   180.000000    15.731840     2
   CG314   CG2R53   NG2R50   CG2R51     9     0.000000     0.000000     2
   CG314   CG2R53   SG2R50   CG2R51     9   180.000000    10.794720     2
   CG314   CG2R61   CG2R61    CG314     9   180.000000     2.886960     2
   CG314   CG2R61   CG2R61    CG321     9   180.000000    10.292640     2
   CG314   CG2R61   CG2R61    NG2S0     9   180.000000     8.158800     2
   CG314   CG2R61   CG2R61    NG301     9     0.000000     0.292880     2
   CG314   CG2R61   CG2R61    NG311     9     0.000000     0.000000     2
   CG314   CG2R61   CG2R61    OG301     9     0.000000     0.000000     2
   CG314   CG2R61   CG2R61    OG311     9   180.000000    12.217280     2
   CG314   CG2R61   CG2R61    SG3O2     9     0.000000     0.418400     2
   CG314   CG2R61   CG2R61    HGR61     9   180.000000    10.041600     2
   CG314   CG2R61   CG2RC0   CG2RC0     9   180.000000    10.334480     2
   CG314   CG2R61   CG2RC0   NG2R51     9   180.000000     4.560560     2
   CG314   CG2R64   NG2R62   CG2R61     9   180.000000    18.074880     2
   CG314    CG301    CG321    NG301     9     0.000000     6.317840     3
   CG314    CG301    CG321     HGA2     9     0.000000     0.836800     3
   CG314    CG301    CG331     HGA3     9     0.000000     0.836800     3
   CG314    CG301    NG2S1    CG2O1     9     0.000000     7.531200     1
   CG314    CG301    NG2S1     HGP1     9     0.000000     0.000000     1
   CG314    CG301    OG311     HGP1     9     0.000000     2.092000     1
   CG314    CG301    OG311     HGP1     9     0.000000     2.928800     2
   CG314    CG301   OG3C61    CG321     9   180.000000     1.297040     3
   CG314    CG301    SG3O3    CG321     9   180.000000    13.430640     1
   CG314    CG301    SG3O3    CG321     9     0.000000    51.002960     3
   CG314    CG301    SG3O3    OG2P1     9     0.000000    24.727440     1
   CG314    CG301    SG3O3    OG2P1     9     0.000000     4.895280     2
   CG314    CG301    SG3O3    OG2P1     9   180.000000     2.343040     3
   CG314    CG301    SG3O3    OG2P1     9   180.000000     1.840960     4
   CG314    CG311    CG311    CG321     9     0.000000     0.836800     3
   CG314    CG311    CG311    CG331     9     0.000000     0.836800     3
   CG314    CG311    CG311   NG2R51     9     0.000000     0.292880     3
   CG314    CG311    CG311    NG321     9   180.000000     0.418400     1
   CG314    CG311    CG311    NG321     9   180.000000     1.297040     3
   CG314    CG311    CG311    NG321     9     0.000000     2.092000     4
   CG314    CG311    CG311    OG311     9   180.000000     2.092000     1
   CG314    CG311    CG311    OG311     9     0.000000     2.928800     2
   CG314    CG311    CG311    OG311     9     0.000000     1.673600     3
   CG314    CG311    CG311    OG311     9     0.000000     1.673600     5
   CG314    CG311    CG311   OG3C61     9     0.000000     0.251040     1
   CG314    CG311    CG311   OG3C61     9     0.000000     1.589920     2
   CG314    CG311    CG311   OG3C61     9   180.000000     4.937120     3
   CG314    CG311    CG311   OG3C61     9   180.000000     1.757280     4
   CG314    CG311    CG311   OG3C61     9     0.000000     0.627600     5
   CG314    CG311    CG311     HGA1     9     0.000000     0.836800     3
   CG314    CG311    CG314    CG321     9     0.000000     0.836800     3
   CG314    CG311    CG314    NG3P2     9     0.000000     0.000000     3
   CG314    CG311    CG314    NG3P2     9     0.000000     0.000000     4
   CG314    CG311    CG314    NG3P3     9   180.000000     4.978960     3
   CG314    CG311    CG314    NG3P3     9     0.000000     3.221680     4
   CG314    CG311    CG314     HGA1     9     0.000000     0.836800     3
   CG314    CG311    CG321    CG2D1     9     0.000000     3.807440     3
   CG314    CG311    CG321    CG2D1     9   180.000000     2.468560     4
   CG314    CG311    CG321   CG2R51     9     0.000000     1.464400     3
   CG314    CG311    CG321    CG311     9     0.000000     0.836800     3
   CG314    CG311    CG321    CG321     9     0.000000     0.836800     3
   CG314    CG311    CG321    CG331     9     0.000000     0.836800     3
   CG314    CG311    CG321    NG301     9     0.000000     1.631760     3
   CG314    CG311    CG321   OG3C61     9   180.000000     0.000000     1
   CG314    CG311    CG321   OG3C61     9   180.000000     3.305360     2
   CG314    CG311    CG321   OG3C61     9   180.000000     3.723760     3
   CG314    CG311    CG321   OG3C61     9   180.000000     0.627600     4
   CG314    CG311    CG321   OG3C61     9     0.000000     1.171520     6
   CG314    CG311    CG321     HGA2     9     0.000000     0.815880     3
   CG314    CG311    CG324    NG3P1     9     0.000000    11.924400     3
   CG314    CG311    CG324     HGA2     9     0.000000     0.836800     3
   CG314    CG311    CG331     HGA3     9     0.000000     0.836800     3
   CG314    CG311   NG2R51   CG2R51     9     0.000000     0.753120     1
   CG314    CG311   NG2R51   CG2R51     9   180.000000     0.418400     2
   CG314    CG311   NG2R51   CG2R51     9   180.000000     1.506240     3
   CG314    CG311   NG2R51   CG2R51     9     0.000000     3.849280     4
   CG314    CG311   NG2R51   NG2R50     9   180.000000     3.179840     1
   CG314    CG311   NG2R51   NG2R50     9   180.000000     2.175680     2
   CG314    CG311   NG2R51   NG2R50     9   180.000000     0.000000     3
   CG314    CG311   NG2R51   NG2R50     9     0.000000     1.966480     4
   CG314    CG311    NG2S0    CG2O1     9   180.000000     2.092000     1
   CG314    CG311    NG2S0    CG2O1     9   180.000000     0.669440     6
   CG314    CG311    NG2S0    CG311     9     0.000000     6.945440     1
   CG314    CG311    NG2S0    CG311     9     0.000000    10.501840     2
   CG314    CG311    NG2S0    CG311     9   180.000000     4.978960     3
   CG314    CG311    NG2S1    CG2O1     9     0.000000     7.531200     1
   CG314    CG311    NG2S1     HGP1     9     0.000000     0.000000     1
   CG314    CG311    NG301    CG321     9   180.000000     1.673600     1
   CG314    CG311    NG301    CG321     9   180.000000     6.694400     2
   CG314    CG311    NG301    CG321     9     0.000000     6.276000     3
   CG314    CG311    NG301    CG331     9   180.000000     2.677760     1
   CG314    CG311    NG301    CG331     9     0.000000     0.669440     2
   CG314    CG311    NG301    CG331     9   180.000000     3.054320     3
   CG314    CG311    NG311    CG321     9     0.000000     2.217520     1
   CG314    CG311    NG311    CG321     9     0.000000     3.765600     2
   CG314    CG311    NG311    CG321     9   180.000000     7.782240     3
   CG314    CG311    NG311   HGPAM1     9   180.000000     7.447520     3
   CG314    CG311    NG321   HGPAM2     9     0.000000     2.719600     3
   CG314    CG311    NG321   HGPAM2     9   180.000000     2.343040     6
   CG314    CG311    OG311     HGP1     9     0.000000     2.092000     1
   CG314    CG311    OG311     HGP1     9     0.000000     2.928800     2
   CG314    CG311   OG3C61    CG321     9     0.000000     2.092000     3
   CG314    CG311    SG311    CG321     9     0.000000     0.836800     3
   CG314    CG314    CG321    CG311     9     0.000000     0.836800     3
   CG314    CG314    CG321     HGA2     9     0.000000     0.836800     3
   CG314    CG314    CG331     HGA3     9     0.000000     0.836800     3
   CG314    CG314    NG3P2    CG324     9     0.000000     0.669440     3
   CG314    CG314    NG3P2     HGP2     9     0.000000     1.297040     3
   CG314    CG314    NG3P3     HGP2     9     0.000000     1.046000     3
   CG314    CG321    CG321    CG314     9     0.000000     0.836800     3
   CG314    CG321    CG321    CG321     9     0.000000     2.092000     3
   CG314    CG321    CG321    CG321     9   180.000000     2.092000     6
   CG314    CG321    CG321    CG324     9     0.000000     0.815880     3
   CG314    CG321    CG321    CG331     9     0.000000     2.092000     3
   CG314    CG321    CG321    CG331     9   180.000000     2.092000     6
   CG314    CG321    CG321   NG2R61     9   180.000000     2.092000     1
   CG314    CG321    CG321    NG2S0     9     0.000000     0.836800     3
   CG314    CG321    CG321    NG301     9   180.000000     0.627600     1
   CG314    CG321    CG321    NG301     9   180.000000    20.627120     2
   CG314    CG321    CG321    SG311     9     0.000000     0.815880     3
   CG314    CG321    CG321     HGA2     9     0.000000     0.815880     3
   CG314    CG321    CG322    CG321     9     0.000000     3.221680     3
   CG314    CG321    CG322    CG321     9   180.000000     2.510400     4
   CG314    CG321    CG322    CG321     9   180.000000     3.681920     6
   CG314    CG321    CG322     FGA1     9   180.000000     1.422560     3
   CG314    CG321    CG322     FGA1     9   180.000000     7.029120     4
   CG314    CG321    CG322     HGA6     9   180.000000     4.309520     3
   CG314    CG321    CG322     HGA6     9   180.000000     0.000000     6
   CG314    CG321    CG324    NG2P1     9   180.000000     2.510400     3
   CG314    CG321    CG324    NG3P1     9   180.000000     1.966480     3
   CG314    CG321    CG324    NG3P2     9     0.000000    11.757040     3
   CG314    CG321    CG324     HGA2     9     0.000000     0.836800     3
   CG314    CG321    CG331     HGA3     9     0.000000     0.836800     3
   CG314    CG321    NG2S0    CG2O1     9     0.000000     0.920480     1
   CG314    CG321    NG2S0    CG2O1     9     0.000000     1.757280     4
   CG314    CG321    NG2S0    CG331     9     0.000000     0.083680     2
   CG314    CG321    NG2S0    CG331     9     0.000000     0.502080     3
   CG314    CG321    NG2S1    CG2O1     9     0.000000     7.531200     1
   CG314    CG321    NG2S1     HGP1     9     0.000000     0.000000     1
   CG314    CG321    NG301    CG321     9   180.000000     1.589920     1
   CG314    CG321    NG301    CG321     9     0.000000    24.601920     2
   CG314    CG321    NG301    CG321     9   180.000000     0.669440     3
   CG314    CG321    NG301    CG331     9     0.000000     0.794960     1
   CG314    CG321    NG301    CG331     9   180.000000     0.585760     2
   CG314    CG321    NG301    CG331     9   180.000000     2.217520     3
   CG314    CG321    NG311    CG321     9     0.000000     0.000000     1
   CG314    CG321    NG311    CG321     9   180.000000    15.690000     2
   CG314    CG321    NG311    CG321     9   180.000000     7.322000     3
   CG314    CG321    NG311   HGPAM1     9   180.000000     0.000000     3
   CG314    CG321    NG311   HGPAM1     9     0.000000     1.924640     4
   CG314    CG321    OG311     HGP1     9     0.000000     4.727920     1
   CG314    CG321    OG311     HGP1     9     0.000000     0.585760     2
   CG314    CG321    OG311     HGP1     9     0.000000     1.004160     3
   CG314    CG321   OG3C61    CG321     9     0.000000     2.092000     3
   CG314    CG321    SG311    CG311     9     0.000000     0.836800     3
   CG314    CG321    SG311    CG321     9     0.000000     0.836800     3
   CG314    CG321    SG311     HGP3     9     0.000000     1.004160     1
   CG314    CG321    SG311     HGP3     9     0.000000     0.627600     2
   CG314    CG321    SG311     HGP3     9     0.000000     1.129680     3
   CG314    CG321    SG3O3    CG301     9     0.000000     1.966480     1
   CG314    CG321    SG3O3    CG301     9   180.000000     0.292880     3
   CG314    CG321    SG3O3    OG2P1     9     0.000000     3.179840     1
   CG314    CG321    SG3O3    OG2P1     9     0.000000     7.656720     2
   CG314    CG321    SG3O3    OG2P1     9     0.000000    19.790320     3
   CG314    CG324    NG3P1    CG324     9   180.000000     0.167360     2
   CG314    CG324    NG3P1    CG324     9   180.000000     0.627600     3
   CG314    CG324    NG3P1    CG334     9   180.000000    10.627360     2
   CG314    CG324    NG3P1    CG334     9   180.000000     3.723760     3
   CG314    CG324    NG3P1     HGP2     9   180.000000     0.627600     2
   CG314    CG324    NG3P1     HGP2     9     0.000000     0.543920     3
   CG314    CG324    NG3P2    CG324     9     0.000000     0.167360     1
   CG314    CG324    NG3P2    CG324     9     0.000000     7.489360     2
   CG314    CG324    NG3P2    CG324     9     0.000000     4.727920     3
   CG314    CG324    NG3P2     HGP2     9   180.000000     0.962320     3
   CG314   CG3C51   CG3C52   CG3C51     9     0.000000     0.426768     3
   CG314   CG3C51   CG3C52     HGA2     9     0.000000     0.076567     3
   CG314   CG3C51   OG3C51   NG3C51     9     0.000000     0.156900     3
   CG314   CG3RC1   CG3RC1    CG321     9   180.000000     0.209200     3
   CG314   CG3RC1   CG3RC1   CG3C52     9   180.000000     2.845120     2
   CG314   CG3RC1   CG3RC1   CG3C52     9   180.000000     1.255200     3
   CG314   CG3RC1   CG3RC1     HGA1     9     0.000000     0.000000     3
   CG321    CG2D1    CG2D1    CG321     9   180.000000     1.882800     1
   CG321    CG2D1    CG2D1    CG321     9   180.000000    35.564000     2
   CG321    CG2D1    CG2D1    CG324     9   180.000000     1.882800     1
   CG321    CG2D1    CG2D1    CG324     9   180.000000    29.288000     2
   CG321    CG2D1    CG2D1    CG331     9   180.000000     1.882800     1
   CG321    CG2D1    CG2D1    CG331     9   180.000000    35.564000     2
   CG321    CG2D1    CG2D1   CG3C31     9   180.000000     1.882800     1
   CG321    CG2D1    CG2D1   CG3C31     9   180.000000    35.564000     2
   CG321    CG2D1    CG2D1   CG3C51     9   180.000000     0.167360     1
   CG321    CG2D1    CG2D1   CG3C51     9   180.000000    11.380480     2
   CG321    CG2D1    CG2D1   CG3C52     9     0.000000     7.698560     1
   CG321    CG2D1    CG2D1   CG3C52     9   180.000000    31.505520     2
   CG321    CG2D1    CG2D1   CG3RC1     9   180.000000     0.000000     1
   CG321    CG2D1    CG2D1   CG3RC1     9   180.000000    20.836320     2
   CG321    CG2D1    CG2D1     FGA1     9   180.000000     0.711280     1
   CG321    CG2D1    CG2D1     FGA1     9     0.000000     1.129680     2
   CG321    CG2D1    CG2D1     HGA4     9   180.000000     4.184000     2
   CG321    CG2D1   CG2D1O    CG314     9     0.000000     0.125520     1
   CG321    CG2D1   CG2D1O    CG314     9     0.000000     0.083680     2
   CG321    CG2D1   CG2D1O    CG321     9     0.000000     0.878640     1
   CG321    CG2D1   CG2D1O    CG321     9   180.000000     8.870080     2
   CG321    CG2D1   CG2D1O    NG2S1     9   180.000000    17.949360     2
   CG321    CG2D1   CG2D1O    NG301     9   180.000000    12.552000     2
   CG321    CG2D1   CG2D1O    NG311     9   180.000000    12.552000     2
   CG321    CG2D1   CG2D1O    NG3P2     9   180.000000     4.602400     2
   CG321    CG2D1   CG2D1O   OG3R60     9   180.000000    12.552000     2
   CG321    CG2D1   CG2D1O     HGA4     9   180.000000    25.104000     2
   CG321    CG2D1    CG2D2     HGA5     9   180.000000    21.756800     2
   CG321    CG2D1   CG2D2O    CG314     9     0.000000     0.125520     1
   CG321    CG2D1   CG2D2O    CG314     9     0.000000     0.083680     2
   CG321    CG2D1   CG2D2O    CG321     9     0.000000     0.878640     1
   CG321    CG2D1   CG2D2O    CG321     9   180.000000     8.870080     2
   CG321    CG2D1   CG2D2O    NG2S1     9   180.000000    17.949360     2
   CG321    CG2D1   CG2D2O    NG301     9   180.000000    12.552000     2
   CG321    CG2D1   CG2D2O    NG311     9   180.000000    12.552000     2
   CG321    CG2D1   CG2D2O    NG3P2     9   180.000000     4.602400     2
   CG321    CG2D1   CG2D2O   OG3R60     9   180.000000    12.552000     2
   CG321    CG2D1   CG2D2O     HGA4     9   180.000000    25.104000     2
   CG321    CG2D1    CG301    CG311     9   180.000000     0.000000     3
   CG321    CG2D1    CG301    CG321     9   180.000000     1.255200     3
   CG321    CG2D1    CG301    CG331     9   180.000000     0.000000     3
   CG321    CG2D1    CG311    CG2D1     9     0.000000     0.000000     2
   CG321    CG2D1    CG311    CG2D1     9   180.000000     0.585760     3
   CG321    CG2D1    CG311   CG2R61     9     0.000000     1.380720     2
   CG321    CG2D1    CG311   CG2R61     9   180.000000     6.276000     3
   CG321    CG2D1    CG311    CG311     9     0.000000     0.794960     3
   CG321    CG2D1    CG311    CG321     9     0.000000     0.794960     3
   CG321    CG2D1    CG311    OG311     9   180.000000     1.046000     1
   CG321    CG2D1    CG311    OG311     9   180.000000     2.175680     2
   CG321    CG2D1    CG311    OG311     9   180.000000     0.962320     3
   CG321    CG2D1    CG311     HGA1     9     0.000000     0.794960     3
   CG321    CG2D1    CG321    CG321     9     0.000000     0.794960     3
   CG321    CG2D1    CG321    NG301     9   180.000000     0.041840     1
   CG321    CG2D1    CG321    NG301     9     0.000000     0.000000     2
   CG321    CG2D1    CG321    NG301     9     0.000000     0.209200     3
   CG321    CG2D1    CG321     HGA2     9     0.000000     0.794960     3
   CG321    CG2D1    CG331     HGA3     9     0.000000     0.669440     3
   CG321    CG2D1    NG2D1    CG321     9   180.000000    50.208000     2
   CG321    CG2D1    NG2D1    NG3N1     9   180.000000    30.501360     2
   CG321   CG2D1O   CG2D1O    SG311     9   180.000000    18.576960     2
   CG321   CG2D1O   CG2DC1    CG2O5     9   180.000000     7.824080     1
   CG321   CG2D1O   CG2DC1    CG2O5     9     0.000000     0.460240     2
   CG321   CG2D1O   CG2DC1    CG321     9   180.000000    21.045520     2
   CG321   CG2D1O    NG2S1    CG2O1     9     0.000000     5.857600     2
   CG321   CG2D1O    NG2S1     HGP1     9   180.000000    25.564240     2
   CG321   CG2D1O    NG311   CG2R61     9     0.000000     0.000000     2
   CG321   CG2D1O    NG311   HGPAM1     9   180.000000     9.665040     2
   CG321   CG2D1O    OG311     HGP1     9   180.000000    10.627360     2
   CG321   CG2D2O   CG2D2O    SG311     9   180.000000    18.576960     2
   CG321   CG2D2O   CG2DC2    CG2O5     9   180.000000     7.824080     1
   CG321   CG2D2O   CG2DC2    CG2O5     9     0.000000     0.460240     2
   CG321   CG2D2O   CG2DC2    CG321     9   180.000000    21.045520     2
   CG321   CG2D2O    NG2S1    CG2O1     9     0.000000     5.857600     2
   CG321   CG2D2O    NG2S1     HGP1     9   180.000000    25.564240     2
   CG321   CG2D2O    NG311   CG2R61     9     0.000000     0.000000     2
   CG321   CG2D2O    NG311   HGPAM1     9   180.000000     9.665040     2
   CG321   CG2D2O    OG311     HGP1     9   180.000000    10.627360     2
   CG321   CG2DC1   CG2DC1    CG321     9   180.000000    41.840000     2
   CG321   CG2DC1   CG2DC1    CG324     9   180.000000    11.129440     2
   CG321   CG2DC1   CG2DC1    CG331     9   180.000000    41.840000     2
   CG321   CG2DC1   CG2DC1     HGA4     9   180.000000    21.756800     2
   CG321   CG2DC1   CG2DC2   CG2D2O     9   180.000000     4.602400     1
   CG321   CG2DC1   CG2DC2   CG2D2O     9   180.000000     2.928800     2
   CG321   CG2DC1   CG2DC2   CG2DC2     9   180.000000     4.602400     1
   CG321   CG2DC1   CG2DC2   CG2DC2     9   180.000000     2.928800     2
   CG321   CG2DC1   CG2DC2    CG2O1     9   180.000000     1.255200     1
   CG321   CG2DC1   CG2DC2    CG2O1     9   180.000000    11.422320     2
   CG321   CG2DC1   CG2DC2    CG2O1     9   180.000000     3.179840     4
   CG321   CG2DC1   CG2DC2     HGA4     9   180.000000     4.184000     2
   CG321   CG2DC1   CG2DC3     HGA5     9   180.000000    21.756800     2
   CG321   CG2DC1    CG2O1    NG2S0     9   180.000000     2.092000     2
   CG321   CG2DC1    CG2O1    NG2S0     9   180.000000     1.464400     3
   CG321   CG2DC1    CG2O1    NG2S0     9     0.000000     1.673600     6
   CG321   CG2DC1    CG2O1    NG2S2     9   180.000000     2.092000     2
   CG321   CG2DC1    CG2O1    NG2S2     9   180.000000     1.464400     3
   CG321   CG2DC1    CG2O1    NG2S2     9     0.000000     1.673600     6
   CG321   CG2DC1    CG2O1    OG2D1     9   180.000000     4.184000     2
   CG321   CG2DC1    CG2O1    OG2D1     9     0.000000     4.184000     3
   CG321   CG2DC1    CG2O1    OG2D1     9     0.000000     1.673600     6
   CG321   CG2DC1    CG2O3    OG2D2     9     0.000000     0.294135     2
   CG321   CG2DC1    CG2O3    OG2D2     9     0.000000     5.893582     3
   CG321   CG2DC1    CG2O3    OG2D2     9   180.000000     0.004602     6
   CG321   CG2DC1    CG2O5   CG2DC1     9   180.000000     0.005021     2
   CG321   CG2DC1    CG2O5    CG331     9   180.000000    17.823840     2
   CG321   CG2DC1    CG2O5    OG2D3     9   180.000000     3.782754     2
   CG321   CG2DC1   CG2R51   CG2R51     9   180.000000     0.083680     2
   CG321   CG2DC1   CG2R51   CG2R51     9     0.000000     1.548080     4
   CG321   CG2DC1   CG2R51   CG2R52     9   180.000000     3.598240     2
   CG321   CG2DC1   CG2R51   CG2R52     9     0.000000     0.962320     4
   CG321   CG2DC1   CG2R51   NG2R51     9   180.000000     5.188160     2
   CG321   CG2DC1   CG2R51   NG2R51     9   180.000000     0.627600     4
   CG321   CG2DC1   CG2R53   NG2R50     9   180.000000     2.098694     2
   CG321   CG2DC1   CG2R53   NG2R50     9   180.000000     1.885729     3
   CG321   CG2DC1   CG2R53   NG2R50     9     0.000000     0.399154     6
   CG321   CG2DC1   CG2R53   NG2R51     9   180.000000     3.991118     2
   CG321   CG2DC1   CG2R53   NG2R51     9     0.000000     2.622113     4
   CG321   CG2DC1   CG2R61   CG2R61     9   180.000000     3.347200     2
   CG321   CG2DC1   CG2R61   CG2R61     9   180.000000     0.041840     4
   CG321   CG2DC1   CG2R61   CG2R66     9   180.000000     2.050160     2
   CG321   CG2DC1   CG2R61   CG2R66     9     0.000000     1.799120     4
   CG321   CG2DC1   CG2R62   CG2R62     9     0.000000     1.715440     2
   CG321   CG2DC1   CG2R62   CG2R62     9   180.000000     0.585760     4
   CG321   CG2DC1   CG2R62   CG2R62     9     0.000000     0.627600     6
   CG321   CG2DC1   CG2R62   NG2R61     9   180.000000     0.502080     2
   CG321   CG2DC1   CG2R62   NG2R61     9     0.000000     6.945440     4
   CG321   CG2DC1   CG2R64   NG2R62     9   180.000000     7.322000     2
   CG321   CG2DC1   CG2R64   NG2R62     9   180.000000     0.209200     3
   CG321   CG2DC1   CG2R64   NG2R62     9   180.000000     0.460240     6
   CG321   CG2DC1    CG301    CG321     9     0.000000     4.853440     3
   CG321   CG2DC1    CG301    CG321     9     0.000000     1.506240     4
   CG321   CG2DC1    CG301    CG331     9     0.000000     0.418400     3
   CG321   CG2DC1    CG301    CG331     9   180.000000     0.418400     6
   CG321   CG2DC1    CG311   CG2DC1     9   180.000000     0.041840     2
   CG321   CG2DC1    CG311   CG2DC1     9   180.000000     0.000000     3
   CG321   CG2DC1    CG311    CG2O2     9   180.000000    22.928320     3
   CG321   CG2DC1    CG311    CG2O2     9   180.000000    24.434560     4
   CG321   CG2DC1    CG311    CG2O3     9   180.000000    17.363600     3
   CG321   CG2DC1    CG311    CG2O3     9   180.000000     7.824080     4
   CG321   CG2DC1    CG311    CG311     9     0.000000     0.794960     3
   CG321   CG2DC1    CG311    CG321     9     0.000000     0.794960     3
   CG321   CG2DC1    CG311     HGA1     9     0.000000     0.794960     3
   CG321   CG2DC1    CG321    CG321     9     0.000000     0.794960     3
   CG321   CG2DC1    CG321     HGA2     9     0.000000     0.794960     3
   CG321   CG2DC1    CG331     HGA3     9     0.000000     0.669440     3
   CG321   CG2DC1    NG2D1    CG2O1     9     0.000000    27.817742     1
   CG321   CG2DC1    NG2D1    CG2O1     9   180.000000    21.499902     2
   CG321   CG2DC1    NG2D1    CG2O6     9     0.000000    27.823600     1
   CG321   CG2DC1    NG2D1    CG2O6     9   180.000000    21.505760     2
   CG321   CG2DC1    NG2D1   CG2R61     9     0.000000     0.000000     1
   CG321   CG2DC1    NG2D1   CG2R61     9   180.000000     5.732080     2
   CG321   CG2DC1    NG2D1   CG2R64     9     0.000000     7.405680     1
   CG321   CG2DC1    NG2D1   CG2R64     9   180.000000    19.246400     2
   CG321   CG2DC1    NG2D1    NG2D1     9     0.000000     6.192320     1
   CG321   CG2DC1    NG2D1    NG2D1     9   180.000000    32.426000     2
   CG321   CG2DC1    NG2D1    NG2S1     9     0.000000     1.297040     1
   CG321   CG2DC1    NG2D1    NG2S1     9   180.000000     7.238320     2
   CG321   CG2DC2   CG2DC2    CG321     9   180.000000    41.840000     2
   CG321   CG2DC2   CG2DC2    CG324     9   180.000000    11.129440     2
   CG321   CG2DC2   CG2DC2    CG331     9   180.000000    41.840000     2
   CG321   CG2DC2   CG2DC2     HGA4     9   180.000000    21.756800     2
   CG321   CG2DC2   CG2DC3     HGA5     9   180.000000    21.756800     2
   CG321   CG2DC2    CG2O1    NG2S0     9   180.000000     2.092000     2
   CG321   CG2DC2    CG2O1    NG2S0     9   180.000000     1.464400     3
   CG321   CG2DC2    CG2O1    NG2S0     9     0.000000     1.673600     6
   CG321   CG2DC2    CG2O1    NG2S2     9   180.000000     2.092000     2
   CG321   CG2DC2    CG2O1    NG2S2     9   180.000000     1.464400     3
   CG321   CG2DC2    CG2O1    NG2S2     9     0.000000     1.673600     6
   CG321   CG2DC2    CG2O1    OG2D1     9   180.000000     4.184000     2
   CG321   CG2DC2    CG2O1    OG2D1     9     0.000000     4.184000     3
   CG321   CG2DC2    CG2O1    OG2D1     9     0.000000     1.673600     6
   CG321   CG2DC2    CG2O3    OG2D2     9     0.000000     0.294135     2
   CG321   CG2DC2    CG2O3    OG2D2     9     0.000000     5.893582     3
   CG321   CG2DC2    CG2O3    OG2D2     9   180.000000     0.004602     6
   CG321   CG2DC2    CG2O5   CG2DC2     9   180.000000     0.005021     2
   CG321   CG2DC2    CG2O5    CG331     9   180.000000    17.823840     2
   CG321   CG2DC2    CG2O5    OG2D3     9   180.000000     3.782754     2
   CG321   CG2DC2   CG2R51   CG2R51     9   180.000000     0.083680     2
   CG321   CG2DC2   CG2R51   CG2R51     9     0.000000     1.548080     4
   CG321   CG2DC2   CG2R51   CG2R52     9   180.000000     3.598240     2
   CG321   CG2DC2   CG2R51   CG2R52     9     0.000000     0.962320     4
   CG321   CG2DC2   CG2R51   NG2R51     9   180.000000     5.188160     2
   CG321   CG2DC2   CG2R51   NG2R51     9   180.000000     0.627600     4
   CG321   CG2DC2   CG2R53   NG2R50     9   180.000000     2.098694     2
   CG321   CG2DC2   CG2R53   NG2R50     9   180.000000     1.885729     3
   CG321   CG2DC2   CG2R53   NG2R50     9     0.000000     0.399154     6
   CG321   CG2DC2   CG2R53   NG2R51     9   180.000000     3.991118     2
   CG321   CG2DC2   CG2R53   NG2R51     9     0.000000     2.622113     4
   CG321   CG2DC2   CG2R61   CG2R61     9   180.000000     3.347200     2
   CG321   CG2DC2   CG2R61   CG2R61     9   180.000000     0.041840     4
   CG321   CG2DC2   CG2R61   CG2R66     9   180.000000     2.050160     2
   CG321   CG2DC2   CG2R61   CG2R66     9     0.000000     1.799120     4
   CG321   CG2DC2   CG2R62   CG2R62     9     0.000000     1.715440     2
   CG321   CG2DC2   CG2R62   CG2R62     9   180.000000     0.585760     4
   CG321   CG2DC2   CG2R62   CG2R62     9     0.000000     0.627600     6
   CG321   CG2DC2   CG2R62   NG2R61     9   180.000000     0.502080     2
   CG321   CG2DC2   CG2R62   NG2R61     9     0.000000     6.945440     4
   CG321   CG2DC2   CG2R64   NG2R62     9   180.000000     7.322000     2
   CG321   CG2DC2   CG2R64   NG2R62     9   180.000000     0.209200     3
   CG321   CG2DC2   CG2R64   NG2R62     9   180.000000     0.460240     6
   CG321   CG2DC2    CG301    CG321     9     0.000000     4.853440     3
   CG321   CG2DC2    CG301    CG321     9     0.000000     1.506240     4
   CG321   CG2DC2    CG301    CG331     9     0.000000     0.418400     3
   CG321   CG2DC2    CG301    CG331     9   180.000000     0.418400     6
   CG321   CG2DC2    CG311   CG2DC2     9   180.000000     0.041840     2
   CG321   CG2DC2    CG311   CG2DC2     9   180.000000     0.000000     3
   CG321   CG2DC2    CG311    CG2O2     9   180.000000    22.928320     3
   CG321   CG2DC2    CG311    CG2O2     9   180.000000    24.434560     4
   CG321   CG2DC2    CG311    CG2O3     9   180.000000    17.363600     3
   CG321   CG2DC2    CG311    CG2O3     9   180.000000     7.824080     4
   CG321   CG2DC2    CG311    CG311     9     0.000000     0.794960     3
   CG321   CG2DC2    CG311    CG321     9     0.000000     0.794960     3
   CG321   CG2DC2    CG311     HGA1     9     0.000000     0.794960     3
   CG321   CG2DC2    CG321    CG321     9     0.000000     0.794960     3
   CG321   CG2DC2    CG321     HGA2     9     0.000000     0.794960     3
   CG321   CG2DC2    CG331     HGA3     9     0.000000     0.669440     3
   CG321   CG2DC2    NG2D1    CG2O1     9     0.000000    27.817742     1
   CG321   CG2DC2    NG2D1    CG2O1     9   180.000000    21.499902     2
   CG321   CG2DC2    NG2D1    CG2O6     9     0.000000    27.823600     1
   CG321   CG2DC2    NG2D1    CG2O6     9   180.000000    21.505760     2
   CG321   CG2DC2    NG2D1   CG2R61     9     0.000000     0.000000     1
   CG321   CG2DC2    NG2D1   CG2R61     9   180.000000     5.732080     2
   CG321   CG2DC2    NG2D1   CG2R64     9     0.000000     7.405680     1
   CG321   CG2DC2    NG2D1   CG2R64     9   180.000000    19.246400     2
   CG321   CG2DC2    NG2D1    NG2D1     9     0.000000     6.192320     1
   CG321   CG2DC2    NG2D1    NG2D1     9   180.000000    32.426000     2
   CG321   CG2DC2    NG2D1    NG2S1     9     0.000000     1.297040     1
   CG321   CG2DC2    NG2D1    NG2S1     9   180.000000     7.238320     2
   CG321    CG2N2    NG2P1    CG324     9   180.000000     5.313680     2
   CG321    CG2N2    NG2P1    CG334     9   180.000000    12.008080     2
   CG321    CG2N2    NG2P1     HGP2     9   180.000000    14.644000     2
   CG321    CG2O1    NG2S0   CG2D1O     9     0.000000     0.627600     1
   CG321    CG2O1    NG2S0   CG2D1O     9   180.000000    20.836320     2
   CG321    CG2O1    NG2S0   CG2D2O     9     0.000000     0.627600     1
   CG321    CG2O1    NG2S0   CG2D2O     9   180.000000    20.836320     2
   CG321    CG2O1    NG2S0    CG2O1     9     0.000000     1.213360     2
   CG321    CG2O1    NG2S0   CG2R61     9     0.000000     6.694400     1
   CG321    CG2O1    NG2S0   CG2R61     9   180.000000    10.460000     2
   CG321    CG2O1    NG2S0    CG301     9   180.000000    10.878400     2
   CG321    CG2O1    NG2S0    CG311     9   180.000000    10.878400     2
   CG321    CG2O1    NG2S0    CG321     9   180.000000    10.878400     2
   CG321    CG2O1    NG2S0    CG331     9   180.000000    10.878400     2
   CG321    CG2O1    NG2S0   CG3C31     9   180.000000    11.506000     2
   CG321    CG2O1    NG2S0   CG3C31     9     0.000000     1.255200     4
   CG321    CG2O1    NG2S0   CG3C51     9   180.000000    11.506000     2
   CG321    CG2O1    NG2S0   CG3C51     9     0.000000     1.255200     4
   CG321    CG2O1    NG2S0   CG3C52     9   180.000000    11.506000     2
   CG321    CG2O1    NG2S0   CG3C52     9     0.000000     1.255200     4
   CG321    CG2O1    NG2S0   CG3RC1     9   180.000000    11.506000     2
   CG321    CG2O1    NG2S0   CG3RC1     9     0.000000     1.255200     4
   CG321    CG2O1    NG2S0    NG2S1     9     0.000000     0.502080     1
   CG321    CG2O1    NG2S0    NG2S1     9     0.000000     0.083680     2
   CG321    CG2O1    NG2S0    NG3N1     9   180.000000     8.995600     2
   CG321    CG2O1    NG2S1   CG2D1O     9     0.000000     6.568880     1
   CG321    CG2O1    NG2S1   CG2D1O     9   180.000000     0.209200     2
   CG321    CG2O1    NG2S1   CG2D2O     9     0.000000     6.568880     1
   CG321    CG2O1    NG2S1   CG2D2O     9   180.000000     0.209200     2
   CG321    CG2O1    NG2S1    CG2O1     9   180.000000     6.903600     2
   CG321    CG2O1    NG2S1    CG2O6     9   180.000000     6.903600     2
   CG321    CG2O1    NG2S1   CG2R51     9     0.000000     6.694400     1
   CG321    CG2O1    NG2S1   CG2R51     9   180.000000    10.460000     2
   CG321    CG2O1    NG2S1   CG2R53     9     0.000000     6.694400     1
   CG321    CG2O1    NG2S1   CG2R53     9   180.000000    10.460000     2
   CG321    CG2O1    NG2S1   CG2R61     9     0.000000     6.694400     1
   CG321    CG2O1    NG2S1   CG2R61     9   180.000000    10.460000     2
   CG321    CG2O1    NG2S1   CG2R64     9     0.000000     6.694400     1
   CG321    CG2O1    NG2S1   CG2R64     9   180.000000    10.460000     2
   CG321    CG2O1    NG2S1    CG301     9     0.000000     6.694400     1
   CG321    CG2O1    NG2S1    CG301     9   180.000000    10.460000     2
   CG321    CG2O1    NG2S1    CG311     9     0.000000     6.694400     1
   CG321    CG2O1    NG2S1    CG311     9   180.000000    10.460000     2
   CG321    CG2O1    NG2S1    CG321     9     0.000000     6.694400     1
   CG321    CG2O1    NG2S1    CG321     9   180.000000    10.460000     2
   CG321    CG2O1    NG2S1    CG331     9     0.000000     6.694400     1
   CG321    CG2O1    NG2S1    CG331     9   180.000000    10.460000     2
   CG321    CG2O1    NG2S1   CG3C50     9     0.000000     6.694400     1
   CG321    CG2O1    NG2S1   CG3C50     9   180.000000    10.460000     2
   CG321    CG2O1    NG2S1    NG2D1     9     0.000000     3.765600     1
   CG321    CG2O1    NG2S1    NG2D1     9   180.000000    14.644000     2
   CG321    CG2O1    NG2S1    NG2S0     9     0.000000     0.836800     1
   CG321    CG2O1    NG2S1    NG2S0     9   180.000000     2.175680     2
   CG321    CG2O1    NG2S1    OG311     9     0.000000    12.523549     1
   CG321    CG2O1    NG2S1    OG311     9   180.000000    29.465820     2
   CG321    CG2O1    NG2S1     HGP1     9   180.000000    10.460000     2
   CG321    CG2O1    NG2S2     HGP1     9   180.000000     5.857600     2
   CG321    CG2O1      NH1      CT3     9     0.000000     6.694400     1
   CG321    CG2O1      NH1      CT3     9   180.000000    10.460000     2
   CG321    CG2O1      NH1      CT1     9     0.000000     6.694400     1
   CG321    CG2O1      NH1      CT1     9   180.000000    10.460000     2
   CG321    CG2O1      NH1        H     9   180.000000    10.460000     2
   CG321    CG2O1      NH1      CT2     9     0.000000     6.694400     1
   CG321    CG2O1      NH1      CT2     9   180.000000    10.460000     2
   CG321    CG2O1        N      CP1     9   180.000000    11.506000     2
   CG321    CG2O1        N      CP1     9     0.000000     1.255200     4
   CG321    CG2O1        N      CP3     9   180.000000    11.506000     2
   CG321    CG2O1        N      CP3     9     0.000000     1.255200     4
   CG321    CG2O2    OG302   CG2R61     9   180.000000    20.250560     2
   CG321    CG2O2    OG302    CG301     9   180.000000     8.577200     2
   CG321    CG2O2    OG302    CG311     9   180.000000     8.577200     2
   CG321    CG2O2    OG302    CG321     9   180.000000     8.577200     2
   CG321    CG2O2    OG302    CG331     9   180.000000     8.577200     2
   CG321    CG2O2    OG303      PG1     9   180.000000    12.682541     1
   CG321    CG2O2    OG303      PG1     9   180.000000     1.702470     2
   CG321    CG2O2    OG303      PG2     9   180.000000     3.090302     2
   CG321    CG2O2    OG311     HGP1     9   180.000000     8.577200     2
   CG321    CG2O2    SG311    CG321     9     0.000000     3.545522     1
   CG321    CG2O2    SG311    CG321     9   180.000000     1.137630     2
   CG321    CG2O2    SG311    CG321     9     0.000000     1.579042     3
   CG321    CG2O2    SG311    CG321     9   180.000000     2.821271     4
   CG321    CG2O2    SG311    CG321     9     0.000000     2.447222     6
   CG321    CG2O2    SG311    CG331     9   180.000000     6.229558     1
   CG321    CG2O2    SG311    CG331     9   180.000000     7.723664     2
   CG321    CG2O5    CG2O5    OG2D3     9   180.000000     0.460240     2
   CG321    CG2O5    CG2O5    OG2D3     9   180.000000     0.794960     4
   CG321    CG2O5   CG2R51   CG2R51     9   180.000000     7.112800     2
   CG321    CG2O5   CG2R51   NG2R50     9   180.000000     2.510400     2
   CG321    CG2O5   CG2R52   CG2R51     9   180.000000     1.631760     2
   CG321    CG2O5   CG2R52   NG2R50     9   180.000000     8.409840     2
   CG321    CG2O5   CG2R61   CG2R61     9   180.000000     1.129680     2
   CG321    CG2O5   CG2R61   CG2RC0     9   180.000000     1.129680     2
   CG321    CG2O5    CG301    CG321     9     0.000000     0.292880     1
   CG321    CG2O5    CG301    CG321     9     0.000000     7.154640     2
   CG321    CG2O5    CG301    CG321     9     0.000000     1.129680     3
   CG321    CG2O5    CG301    CG321     9     0.000000     1.799120     6
   CG321    CG2O5    CG301    CG331     9     0.000000     0.125520     1
   CG321    CG2O5    CG301    CG331     9   180.000000     0.334720     2
   CG321    CG2O5    CG301    CG331     9   180.000000     1.422560     3
   CG321    CG2O5    CG301    CG331     9     0.000000     1.338880     4
   CG321    CG2O5    CG301    CG331     9     0.000000     0.041840     6
   CG321    CG2O5    CG301    OG311     9   180.000000     0.251040     1
   CG321    CG2O5    CG301    OG311     9   180.000000     1.799120     2
   CG321    CG2O5    CG301    OG311     9     0.000000     0.794960     3
   CG321    CG2O5    CG301    OG311     9     0.000000     1.422560     6
   CG321    CG2O5    CG311    CG2O2     9     0.000000     0.418400     1
   CG321    CG2O5    CG311    CG2O2     9     0.000000     0.251040     2
   CG321    CG2O5    CG311    CG2O2     9   180.000000     1.087840     6
   CG321    CG2O5    CG311    CG2O3     9   180.000000     0.000000     1
   CG321    CG2O5    CG311    CG2O3     9   180.000000     0.000000     2
   CG321    CG2O5    CG311    CG2O3     9   180.000000     0.418400     3
   CG321    CG2O5    CG311    CG2O5     9   180.000000     0.334720     1
   CG321    CG2O5    CG311    CG2O5     9     0.000000     1.046000     2
   CG321    CG2O5    CG311    CG2O5     9   180.000000     0.167360     4
   CG321    CG2O5    CG311   CG2R61     9     0.000000     0.000000     2
   CG321    CG2O5    CG311   CG2R61     9   180.000000     0.209200     3
   CG321    CG2O5    CG311    CG302     9   180.000000     0.000000     1
   CG321    CG2O5    CG311    CG302     9   180.000000     6.652560     2
   CG321    CG2O5    CG311    CG302     9   180.000000     3.514560     3
   CG321    CG2O5    CG311    CG302     9     0.000000     0.292880     4
   CG321    CG2O5    CG311    CG302     9   180.000000     0.041840     6
   CG321    CG2O5    CG311    CG311     9     0.000000     3.138000     1
   CG321    CG2O5    CG311    CG311     9   180.000000     0.753120     2
   CG321    CG2O5    CG311    CG311     9     0.000000     0.292880     3
   CG321    CG2O5    CG311    CG311     9     0.000000     0.125520     6
   CG321    CG2O5    CG311    CG314     9   180.000000     0.167360     1
   CG321    CG2O5    CG311    CG314     9     0.000000     0.292880     2
   CG321    CG2O5    CG311    CG314     9     0.000000     1.840960     3
   CG321    CG2O5    CG311    CG314     9     0.000000     2.343040     6
   CG321    CG2O5    CG311    CG321     9     0.000000     3.138000     1
   CG321    CG2O5    CG311    CG321     9   180.000000     0.753120     2
   CG321    CG2O5    CG311    CG321     9     0.000000     0.292880     3
   CG321    CG2O5    CG311    CG321     9     0.000000     0.125520     6
   CG321    CG2O5    CG311    CG324     9     0.000000     0.376560     1
   CG321    CG2O5    CG311    CG324     9     0.000000     0.000000     2
   CG321    CG2O5    CG311    CG324     9   180.000000     3.430880     3
   CG321    CG2O5    CG311    CG324     9   180.000000     0.292880     4
   CG321    CG2O5    CG311    CG324     9     0.000000     1.422560     6
   CG321    CG2O5    CG311    CG331     9     0.000000     3.138000     1
   CG321    CG2O5    CG311    CG331     9   180.000000     0.753120     2
   CG321    CG2O5    CG311    CG331     9     0.000000     0.292880     3
   CG321    CG2O5    CG311    CG331     9     0.000000     0.125520     6
   CG321    CG2O5    CG311   NG2R53     9   180.000000     2.803280     1
   CG321    CG2O5    CG311   NG2R53     9     0.000000     0.669440     6
   CG321    CG2O5    CG311    NG301     9   180.000000     0.083680     1
   CG321    CG2O5    CG311    NG301     9     0.000000     4.142160     2
   CG321    CG2O5    CG311    NG301     9     0.000000     1.924640     3
   CG321    CG2O5    CG311    NG301     9   180.000000     2.928800     4
   CG321    CG2O5    CG311    NG301     9     0.000000     0.543920     6
   CG321    CG2O5    CG311    OG311     9     0.000000     2.510400     1
   CG321    CG2O5    CG311    OG311     9   180.000000     0.334720     2
   CG321    CG2O5    CG311    OG311     9   180.000000     0.460240     3
   CG321    CG2O5    CG311    OG311     9     0.000000     1.129680     6
   CG321    CG2O5    CG311   OG3C61     9   180.000000     0.209200     1
   CG321    CG2O5    CG311   OG3C61     9     0.000000     3.305360     2
   CG321    CG2O5    CG311   OG3C61     9   180.000000     0.669440     3
   CG321    CG2O5    CG311   OG3C61     9   180.000000     3.012480     4
   CG321    CG2O5    CG311   OG3C61     9     0.000000     1.129680     6
   CG321    CG2O5    CG311    SG3O1     9   180.000000     0.125520     1
   CG321    CG2O5    CG311    SG3O1     9   180.000000     0.962320     2
   CG321    CG2O5    CG311    SG3O1     9   180.000000     0.376560     3
   CG321    CG2O5    CG311     HGA1     9     0.000000     0.418400     3
   CG321    CG2O5    CG312    CG321     9     0.000000     0.669440     1
   CG321    CG2O5    CG312    CG321     9     0.000000     0.460240     2
   CG321    CG2O5    CG312    CG321     9     0.000000     0.334720     3
   CG321    CG2O5    CG312    CG321     9     0.000000     1.046000     6
   CG321    CG2O5    CG312     FGA2     9   180.000000     1.046000     1
   CG321    CG2O5    CG312     FGA2     9   180.000000     3.514560     2
   CG321    CG2O5    CG312     FGA2     9   180.000000     0.376560     3
   CG321    CG2O5    CG312     FGA2     9   180.000000     1.631760     6
   CG321    CG2O5    CG314    CG331     9     0.000000     3.138000     1
   CG321    CG2O5    CG314    CG331     9   180.000000     0.753120     2
   CG321    CG2O5    CG314    CG331     9     0.000000     0.292880     3
   CG321    CG2O5    CG314    CG331     9     0.000000     0.125520     6
   CG321    CG2O5    CG314    NG3P1     9     0.000000     0.794960     1
   CG321    CG2O5    CG314    NG3P1     9     0.000000     4.184000     2
   CG321    CG2O5    CG314    NG3P1     9   180.000000     0.083680     3
   CG321    CG2O5    CG314    NG3P1     9   180.000000     6.527040     4
   CG321    CG2O5    CG314    NG3P1     9     0.000000     1.840960     6
   CG321    CG2O5    CG314     HGA1     9     0.000000     0.418400     3
   CG321    CG2O5    CG321    CG2O1     9     0.000000     6.987280     1
   CG321    CG2O5    CG321    CG2O1     9     0.000000     4.058480     2
   CG321    CG2O5    CG321    CG2O1     9   180.000000     4.100320     3
   CG321    CG2O5    CG321    CG2O1     9     0.000000     1.757280     4
   CG321    CG2O5    CG321    CG2O1     9   180.000000     0.251040     6
   CG321    CG2O5    CG321    CG2O5     9     0.000000     0.000000     1
   CG321    CG2O5    CG321    CG2O5     9     0.000000     1.757280     2
   CG321    CG2O5    CG321    CG2O5     9   180.000000     3.054320     3
   CG321    CG2O5    CG321    CG2O5     9     0.000000     1.129680     4
   CG321    CG2O5    CG321    CG2O5     9   180.000000     0.627600     6
   CG321    CG2O5    CG321   CG2R51     9   180.000000     5.020800     1
   CG321    CG2O5    CG321   CG2R51     9     0.000000     1.548080     2
   CG321    CG2O5    CG321   CG2R51     9     0.000000     5.188160     4
   CG321    CG2O5    CG321    CG301     9     0.000000     3.138000     1
   CG321    CG2O5    CG321    CG301     9   180.000000     0.753120     2
   CG321    CG2O5    CG321    CG301     9     0.000000     0.292880     3
   CG321    CG2O5    CG321    CG301     9     0.000000     0.125520     6
   CG321    CG2O5    CG321    CG311     9     0.000000     3.138000     1
   CG321    CG2O5    CG321    CG311     9   180.000000     0.753120     2
   CG321    CG2O5    CG321    CG311     9     0.000000     0.292880     3
   CG321    CG2O5    CG321    CG311     9     0.000000     0.125520     6
   CG321    CG2O5    CG321    CG321     9     0.000000     3.138000     1
   CG321    CG2O5    CG321    CG321     9   180.000000     0.753120     2
   CG321    CG2O5    CG321    CG321     9     0.000000     0.271960     3
   CG321    CG2O5    CG321    CG321     9     0.000000     0.125520     6
   CG321    CG2O5    CG321   CG3C50     9   180.000000     0.418400     1
   CG321    CG2O5    CG321   CG3C50     9     0.000000     0.418400     2
   CG321    CG2O5    CG321   CG3C50     9     0.000000     0.585760     3
   CG321    CG2O5    CG321   CG3C50     9   180.000000     0.585760     6
   CG321    CG2O5    CG321   CG3RC1     9   180.000000     4.351360     1
   CG321    CG2O5    CG321   CG3RC1     9   180.000000     9.288480     2
   CG321    CG2O5    CG321   CG3RC1     9   180.000000     0.460240     3
   CG321    CG2O5    CG321   CG3RC1     9     0.000000     6.359680     4
   CG321    CG2O5    CG321   CG3RC1     9   180.000000     0.627600     6
   CG321    CG2O5    CG321    NG301     9     0.000000     0.000000     1
   CG321    CG2O5    CG321    NG301     9     0.000000     0.000000     2
   CG321    CG2O5    CG321    NG301     9   180.000000     0.000000     3
   CG321    CG2O5    CG321    NG301     9   180.000000     2.050160     4
   CG321    CG2O5    CG321    NG301     9     0.000000     3.974800     6
   CG321    CG2O5    CG321    SG311     9     0.000000     6.885190     1
   CG321    CG2O5    CG321    SG311     9   180.000000     3.999904     2
   CG321    CG2O5    CG321    SG311     9     0.000000     0.558146     3
   CG321    CG2O5    CG321     HGA2     9     0.000000     0.418400     3
   CG321    CG2O5    CG331     HGA3     9     0.000000     0.418400     3
   CG321    CG2O5   CG3C31    CG321     9   180.000000     0.502080     3
   CG321    CG2O5   CG3C31    CG321     9   180.000000     1.004160     4
   CG321    CG2O5   CG3C31   CG3C31     9     0.000000     0.292880     3
   CG321    CG2O5   CG3C31   OG3C31     9     0.000000     0.669440     3
   CG321    CG2O5   CG3RC1    CG331     9   180.000000     1.004160     1
   CG321    CG2O5   CG3RC1    CG331     9   180.000000     4.142160     2
   CG321    CG2O5   CG3RC1    CG331     9     0.000000     8.200640     3
   CG321    CG2O5   CG3RC1    CG331     9     0.000000     0.627600     6
   CG321    CG2O5   CG3RC1   CG3C31     9   180.000000     1.924640     1
   CG321    CG2O5   CG3RC1   CG3C31     9   180.000000     0.000000     2
   CG321    CG2O5   CG3RC1   CG3C31     9   180.000000     6.066800     3
   CG321    CG2O5   CG3RC1   CG3C31     9   180.000000     0.083680     4
   CG321    CG2O5   CG3RC1   CG3C31     9     0.000000     1.757280     6
   CG321    CG2O5   CG3RC1   CG3C52     9   180.000000     1.882800     1
   CG321    CG2O5   CG3RC1   CG3C52     9     0.000000     0.334720     2
   CG321    CG2O5   CG3RC1   CG3C52     9   180.000000     0.334720     3
   CG321    CG2O5   CG3RC1   CG3C52     9   180.000000     2.343040     6
   CG321    CG2O5   CG3RC1   CG3RC1     9     0.000000     0.585760     1
   CG321    CG2O5   CG3RC1   CG3RC1     9   180.000000     4.937120     2
   CG321    CG2O5   CG3RC1   CG3RC1     9     0.000000     1.171520     3
   CG321    CG2O5   CG3RC1   CG3RC1     9     0.000000     1.004160     6
   CG321    CG2O5   CG3RC1   OG3C31     9   180.000000     2.970640     3
   CG321    CG2O5   CG3RC1     HGA1     9     0.000000     0.000000     3
   CG321   CG2R51   CG2R51    CG321     9   180.000000     8.368000     2
   CG321   CG2R51   CG2R51    CG324     9   180.000000     9.372160     2
   CG321   CG2R51   CG2R51    CG331     9   180.000000     2.092000     2
   CG321   CG2R51   CG2R51   CG3C41     9   180.000000     8.368000     2
   CG321   CG2R51   CG2R51   CG3C50     9   180.000000    29.528998     2
   CG321   CG2R51   CG2R51   CG3C52     9   180.000000    21.949264     2
   CG321   CG2R51   CG2R51   NG2R50     9   180.000000    12.552000     2
   CG321   CG2R51   CG2R51   NG2R51     9   180.000000    12.552000     2
   CG321   CG2R51   CG2R51   NG2R52     9   180.000000    10.460000     2
   CG321   CG2R51   CG2R51   NG2RC0     9   180.000000    17.991200     2
   CG321   CG2R51   CG2R51   OG2R50     9   180.000000    26.484720     2
   CG321   CG2R51   CG2R51    OG311     9   180.000000     0.225099     2
   CG321   CG2R51   CG2R51   SG2R50     9   180.000000    28.249113     2
   CG321   CG2R51   CG2R51    HGR51     9   180.000000     4.184000     2
   CG321   CG2R51   CG2R51    HGR52     9   180.000000     4.184000     2
   CG321   CG2R51   CG2R52    CG2O4     9   180.000000     0.000000     2
   CG321   CG2R51   CG2R52    CG2O5     9   180.000000     0.000000     2
   CG321   CG2R51   CG2R52   CG2R61     9   180.000000     6.024960     2
   CG321   CG2R51   CG2R52    CG311     9   180.000000    10.460000     2
   CG321   CG2R51   CG2R52    CG312     9     0.000000     0.000000     2
   CG321   CG2R51   CG2R52    CG314     9     0.000000     0.794960     2
   CG321   CG2R51   CG2R52    CG321     9   180.000000    10.460000     2
   CG321   CG2R51   CG2R52   NG2R50     9   180.000000    12.552000     2
   CG321   CG2R51   CG2R52    HGR52     9   180.000000     4.184000     2
   CG321   CG2R51   CG2R57   CG3RC1     9   180.000000    15.313440     2
   CG321   CG2R51   CG2R57   NG2R51     9     0.000000     0.292880     2
   CG321   CG2R51   CG2RC0   CG2R61     9   180.000000    10.460000     2
   CG321   CG2R51   CG2RC0   CG2R63     9   180.000000    10.460000     2
   CG321   CG2R51   CG2RC0   CG2R66     9   180.000000    10.460000     2
   CG321   CG2R51   CG2RC0   CG2RC0     9   180.000000    12.552000     2
   CG321   CG2R51   CG3C50    CG331     9     0.000000     1.627994     3
   CG321   CG2R51   CG3C50   NG3C51     9   180.000000     2.669392     3
   CG321   CG2R51   CG3C52   CG2RC0     9   180.000000    13.681680     2
   CG321   CG2R51   CG3C52   CG2RC0     9     0.000000     7.824080     3
   CG321   CG2R51   CG3C52   NG3C51     9     0.000000     2.718763     3
   CG321   CG2R51   CG3C52     HGA2     9   180.000000     4.618718     3
   CG321   CG2R51   NG2R50   CG2R53     9   180.000000    12.552000     2
   CG321   CG2R51   NG2R50   CG2RC0     9   180.000000    17.154400     2
   CG321   CG2R51   NG2R50   NG2R50     9   180.000000    26.819440     2
   CG321   CG2R51   NG2R51    CG2O6     9   180.000000     0.000000     2
   CG321   CG2R51   NG2R51   CG2R51     9   180.000000    12.552000     2
   CG321   CG2R51   NG2R51   CG2R53     9   180.000000    12.552000     2
   CG321   CG2R51   NG2R51   CG2R62     9     0.000000     0.083680     2
   CG321   CG2R51   NG2R51   CG2RC0     9   180.000000    12.552000     2
   CG321   CG2R51   NG2R51    CG311     9     0.000000    12.844880     2
   CG321   CG2R51   NG2R51    CG321     9     0.000000    12.844880     2
   CG321   CG2R51   NG2R51    CG331     9     0.000000    12.833583     2
   CG321   CG2R51   NG2R51   CG3C51     9     0.000000     0.418400     2
   CG321   CG2R51   NG2R51   NG2R50     9   180.000000    18.017141     2
   CG321   CG2R51   NG2R51    OG311     9     0.000000     0.083680     2
   CG321   CG2R51   NG2R51      PG2     9   180.000000     3.233814     2
   CG321   CG2R51   NG2R51     HGP1     9   180.000000     4.184000     2
   CG321   CG2R51   NG2R52    CG2O6     9   180.000000     4.560560     2
   CG321   CG2R51   NG2R52   CG2R53     9   180.000000    10.460000     2
   CG321   CG2R51   NG2R52    CG324     9   180.000000     5.020800     2
   CG321   CG2R51   NG2R52    CG334     9   180.000000     5.035862     2
   CG321   CG2R51   NG2R52     HGP2     9   180.000000    12.552000     2
   CG321   CG2R51   NG2RC0   CG2R61     9   180.000000     2.928800     2
   CG321   CG2R51   NG2RC0   CG2R63     9   180.000000     2.928800     2
   CG321   CG2R51   NG2RC0   CG2RC0     9   180.000000     2.928800     2
   CG321   CG2R51   OG2R50   CG2R51     9   180.000000    13.236921     2
   CG321   CG2R51   OG2R50   CG2R53     9   180.000000    13.221440     2
   CG321   CG2R51   OG2R50   CG2RC0     9   180.000000    13.221440     2
   CG321   CG2R51   SG2R50   CG2R51     9   180.000000    10.634891     2
   CG321   CG2R51   SG2R50   CG2R53     9   180.000000    10.627360     2
   CG321   CG2R51   SG2R50   CG2RC0     9   180.000000    10.627360     2
   CG321   CG2R52   CG2R52   NG2R50     9   180.000000    12.552000     2
   CG321   CG2R52   CG3RC1    CG321     9     0.000000     2.510400     3
   CG321   CG2R52   CG3RC1   CG3C51     9   180.000000     3.723760     2
   CG321   CG2R52   CG3RC1   CG3C51     9     0.000000     2.217520     3
   CG321   CG2R52   CG3RC1     HGA1     9   180.000000     0.000000     3
   CG321   CG2R52   NG2R50   NG2R51     9   180.000000    15.899200     2
   CG321   CG2R52   NG2R50   NG3C51     9   180.000000    18.911680     2
   CG321   CG2R52   NG2R50   OG2R50     9   180.000000    24.267200     2
   CG321   CG2R53   NG2R50   CG251O     9   180.000000     0.373631     2
   CG321   CG2R53   NG2R50   CG252O     9   180.000000     0.373631     2
   CG321   CG2R53   NG2R50   CG2R51     9   180.000000    20.576075     2
   CG321   CG2R53   NG2R50   CG2R53     9   180.000000    20.585280     2
   CG321   CG2R53   NG2R50   CG2RC0     9   180.000000    23.012000     2
   CG321   CG2R53   NG2R50   CG2RC7     9   180.000000    23.012000     2
   CG321   CG2R53   NG2R50   NG2R50     9   180.000000    29.288000     2
   CG321   CG2R53   NG2R51   CG2R51     9   180.000000    13.786280     2
   CG321   CG2R53   NG2R51   CG2R53     9   180.000000     0.393296     2
   CG321   CG2R53   NG2R51   CG2R57     9   180.000000    13.765360     2
   CG321   CG2R53   NG2R51   CG2RC0     9   180.000000    23.012000     2
   CG321   CG2R53   NG2R51    CG301     9   180.000000     0.209200     2
   CG321   CG2R53   NG2R51    CG311     9   180.000000     0.209200     2
   CG321   CG2R53   NG2R51    CG321     9   180.000000     0.202087     2
   CG321   CG2R53   NG2R51    CG331     9   180.000000     0.209200     2
   CG321   CG2R53   NG2R51   NG2R50     9   180.000000    20.920000     2
   CG321   CG2R53   NG2R51     HGP1     9   180.000000     4.184000     2
   CG321   CG2R53   NG2R52   CG2R51     9   180.000000     7.623666     2
   CG321   CG2R53   NG2R52   CG2R57     9   180.000000     7.614880     2
   CG321   CG2R53   NG2R52   CG2RC0     9   180.000000     7.614880     2
   CG321   CG2R53   NG2R52    CG314     9     0.000000     0.000000     2
   CG321   CG2R53   NG2R52    CG324     9     0.000000     0.083680     2
   CG321   CG2R53   NG2R52    CG334     9     0.000000     0.125520     2
   CG321   CG2R53   NG2R52    OG311     9     0.000000     2.092000     2
   CG321   CG2R53   NG2R52    OG311     9   180.000000     1.255200     4
   CG321   CG2R53   NG2R52    OG312     9     0.000000     0.125520     2
   CG321   CG2R53   NG2R52     HGP2     9   180.000000     3.878568     2
   CG321   CG2R53   NG2RC0   CG2R61     9     0.000000     0.000000     2
   CG321   CG2R53   NG2RC0   CG2RC0     9     0.000000     0.000000     2
   CG321   CG2R53   OG2R50   CG2RC7     9   180.000000    19.748480     2
   CG321   CG2R53   SG2R50   CG2R51     9   180.000000    25.982640     2
   CG321   CG2R61   CG2R61    CG321     9   180.000000    10.041600     2
   CG321   CG2R61   CG2R61    CG324     9   180.000000     7.405680     2
   CG321   CG2R61   CG2R61    CG331     9   180.000000    10.041600     2
   CG321   CG2R61   CG2R61   CG3C31     9   180.000000    10.041600     2
   CG321   CG2R61   CG2R61   CG3C41     9   180.000000    10.041600     2
   CG321   CG2R61   CG2R61   NG2R60     9   180.000000     4.184000     2
   CG321   CG2R61   CG2R61   NG2R62     9   180.000000     4.184000     2
   CG321   CG2R61   CG2R61    NG2S1     9   180.000000    10.041600     2
   CG321   CG2R61   CG2R61    NG2S3     9   180.000000    10.041600     2
   CG321   CG2R61   CG2R61    NG301     9     0.000000     0.000000     2
   CG321   CG2R61   CG2R61    NG311     9   180.000000     5.857600     2
   CG321   CG2R61   CG2R61    OG301     9   180.000000    10.041600     2
   CG321   CG2R61   CG2R61    OG302     9   180.000000    10.041600     2
   CG321   CG2R61   CG2R61    OG311     9   180.000000    10.041600     2
   CG321   CG2R61   CG2R61   OG3R60     9   180.000000    10.041600     2
   CG321   CG2R61   CG2R61    CLGR1     9   180.000000    14.920562     2
   CG321   CG2R61   CG2R61    HGR61     9   180.000000    10.041600     2
   CG321   CG2R61   CG2R61    HGR62     9   180.000000    10.041600     2
   CG321   CG2R61   CG2R62   CG2R62     9   180.000000    12.970400     2
   CG321   CG2R61   CG2R62   NG2R61     9   180.000000     0.125520     2
   CG321   CG2R61   CG2R63   OG3R60     9   180.000000    10.125280     2
   CG321   CG2R61   CG2R63    SG2D1     9   180.000000     0.292880     2
   CG321   CG2R61   CG2R64    NG2D1     9   180.000000     9.497680     2
   CG321   CG2R61   CG2R64   NG2R60     9   180.000000    14.685840     2
   CG321   CG2R61   CG2R64   NG2R61     9     0.000000     0.334720     2
   CG321   CG2R61   CG2R64    NG2S1     9   180.000000    11.966240     2
   CG321   CG2R61   CG2R66   CG2R61     9   180.000000    12.970400     2
   CG321   CG2R61   CG2R66   CG2R66     9   180.000000    12.970400     2
   CG321   CG2R61   CG2R66     FGR1     9   180.000000    18.828000     2
   CG321   CG2R61   CG2R67   CG2R61     9   180.000000    13.054080     2
   CG321   CG2R61   CG2R67   CG2R67     9   180.000000     5.606560     2
   CG321   CG2R61   CG2R67   NG2R60     9   180.000000    17.363600     2
   CG321   CG2R61   CG2RC0   CG2R51     9   180.000000     0.000000     2
   CG321   CG2R61   CG2RC0   CG2R67     9   180.000000    15.941040     2
   CG321   CG2R61   CG2RC0   CG2RC0     9   180.000000    14.309280     2
   CG321   CG2R61   CG2RC0   CG3RC1     9   180.000000    13.054080     2
   CG321   CG2R61   NG2R60   CG2R61     9   180.000000    12.970400     2
   CG321   CG2R61   NG2R62   CG2R64     9   180.000000    31.128960     2
   CG321   CG2R62   CG2R62    CG321     9   180.000000    14.225600     2
   CG321   CG2R62   CG2R62    CG324     9   180.000000    11.087600     2
   CG321   CG2R62   CG2R62    NG2P1     9   180.000000    21.003680     2
   CG321   CG2R62   CG2R62   NG2R61     9   180.000000    16.736000     2
   CG321   CG2R62   CG2R62   NG2R62     9   180.000000    37.656000     2
   CG321   CG2R62   CG2R62    NG2S3     9   180.000000    19.497440     2
   CG321   CG2R62   CG2R62    NG301     9   180.000000    13.388800     2
   CG321   CG2R62   CG2R62   OG3R60     9   180.000000    17.740160     2
   CG321   CG2R62   CG2R62    HGR62     9   180.000000    16.736000     2
   CG321   CG2R62   CG2R62    HGR63     9   180.000000    16.736000     2
   CG321   CG2R62   CG2R63   CG2R62     9   180.000000     8.368000     2
   CG321   CG2R62   CG2R63   NG2R61     9   180.000000    23.430400     2
   CG321   CG2R62   CG2R63   NG2R62     9   180.000000    18.828000     2
   CG321   CG2R62   CG2R63    OG2D4     9   180.000000     4.184000     2
   CG321   CG2R62   CG2R64   NG2R62     9   180.000000     4.184000     2
   CG321   CG2R62   CG2R64    NG2S3     9   180.000000    10.041600     2
   CG321   CG2R62   CG2RC0   CG2R67     9   180.000000     6.066800     2
   CG321   CG2R62   CG2RC0   NG2R51     9   180.000000     8.409840     2
   CG321   CG2R62   NG2R61   CG2R62     9   180.000000    21.840480     2
   CG321   CG2R62   NG2R61   CG2R63     9     0.000000     0.000000     2
   CG321   CG2R62   NG2R61    CG321     9     0.000000     5.606560     2
   CG321   CG2R62   NG2R61    CG324     9     0.000000     0.083680     2
   CG321   CG2R62   NG2R61    CG331     9     0.000000     2.552240     2
   CG321   CG2R62   NG2R61     HGP1     9   180.000000     2.552240     2
   CG321   CG2R62   NG2R62   CG2R64     9   180.000000    12.635680     2
   CG321   CG2R64   NG2R61   CG2R63     9   180.000000     4.100320     2
   CG321   CG2R64   NG2R61    CG321     9     0.000000     0.083680     2
   CG321   CG2R64   NG2R61    NG2S3     9   180.000000    17.614640     2
   CG321   CG2R64   NG2R62   CG2R62     9   180.000000    23.012000     2
   CG321    CG301    CG301    CG321     9     0.000000     0.836800     3
   CG321    CG301    CG301    OG311     9     0.000000     0.585760     3
   CG321    CG301    CG301   OG3C61     9   180.000000     3.681920     3
   CG321    CG301    CG302     FGA3     9     0.000000     1.046000     3
   CG321    CG301    CG311    CG2D1     9   180.000000     9.037440     1
   CG321    CG301    CG311    CG2D1     9     0.000000    11.840720     2
   CG321    CG301    CG311    CG2D1     9   180.000000     2.594080     3
   CG321    CG301    CG311    CG2D1     9   180.000000     6.736240     4
   CG321    CG301    CG311    CG2O1     9     0.000000     0.836800     3
   CG321    CG301    CG311    CG2O2     9     0.000000     0.836800     3
   CG321    CG301    CG311    CG301     9     0.000000     0.836800     3
   CG321    CG301    CG311    CG302     9   180.000000     0.167360     3
   CG321    CG301    CG311    CG311     9     0.000000     0.836800     3
   CG321    CG301    CG311    CG314     9   180.000000     6.610720     3
   CG321    CG301    CG311    CG321     9     0.000000     0.836800     3
   CG321    CG301    CG311    CG324     9   180.000000     4.225840     3
   CG321    CG301    CG311   NG2R61     9     0.000000     0.251040     3
   CG321    CG301    CG311   NG2R61     9     0.000000     4.309520     4
   CG321    CG301    CG311    NG321     9     0.000000     1.673600     1
   CG321    CG301    CG311    NG321     9     0.000000     3.347200     3
   CG321    CG301    CG311    OG311     9     0.000000     0.585760     3
   CG321    CG301    CG311   OG3C61     9   180.000000     7.322000     1
   CG321    CG301    CG311   OG3C61     9     0.000000     4.435040     2
   CG321    CG301    CG311   OG3C61     9     0.000000     1.966480     3
   CG321    CG301    CG311   OG3C61     9     0.000000     3.556400     4
   CG321    CG301    CG311     HGA1     9     0.000000     0.815880     3
   CG321    CG301    CG314    CG301     9     0.000000     0.836800     3
   CG321    CG301    CG314    NG3P3     9     0.000000     0.836800     3
   CG321    CG301    CG314     HGA1     9     0.000000     0.836800     3
   CG321    CG301    CG321    CG2D1     9     0.000000     0.836800     3
   CG321    CG301    CG321    CG2O2     9     0.000000     0.836800     3
   CG321    CG301    CG321    CG2O5     9     0.000000     0.836800     3
   CG321    CG301    CG321   CG2R61     9     0.000000     0.167360     3
   CG321    CG301    CG321    CG301     9     0.000000     0.836800     3
   CG321    CG301    CG321    CG311     9     0.000000     0.836800     3
   CG321    CG301    CG321    CG321     9     0.000000     0.836800     3
   CG321    CG301    CG321    CG324     9     0.000000     0.836800     3
   CG321    CG301    CG321    CG331     9     0.000000     0.836800     3
   CG321    CG301    CG321   CG3RC1     9   180.000000     4.184000     3
   CG321    CG301    CG321   CG3RC1     9     0.000000     4.393200     4
   CG321    CG301    CG321    NG2S0     9     0.000000     1.464400     3
   CG321    CG301    CG321    NG301     9     0.000000     0.836800     3
   CG321    CG301    CG321    NG311     9     0.000000     0.836800     3
   CG321    CG301    CG321    OG311     9     0.000000     0.585760     3
   CG321    CG301    CG321    SG3O2     9   180.000000     3.932960     1
   CG321    CG301    CG321    SG3O2     9     0.000000     1.589920     2
   CG321    CG301    CG321    SG3O2     9     0.000000     0.753120     3
   CG321    CG301    CG321     HGA2     9     0.000000     0.815880     3
   CG321    CG301    CG322    CG324     9     0.000000    25.020320     3
   CG321    CG301    CG322     FGA1     9     0.000000     1.046000     3
   CG321    CG301    CG322     HGA6     9     0.000000     1.046000     3
   CG321    CG301    CG324    NG3P1     9     0.000000     0.836800     3
   CG321    CG301    CG324    NG3P2     9     0.000000     0.836800     3
   CG321    CG301    CG324     HGA2     9     0.000000     0.836800     3
   CG321    CG301    CG331     HGA3     9     0.000000     0.669440     3
   CG321    CG301   CG3C41   CG3C41     9     0.000000     2.970640     3
   CG321    CG301   CG3C41   CG3C41     9     0.000000     0.000000     4
   CG321    CG301   CG3C41     HGA1     9     0.000000     0.000000     3
   CG321    CG301   CG3C51   CG3C52     9   180.000000     2.092000     4
   CG321    CG301   CG3C51   NG3C51     9     0.000000     1.757280     3
   CG321    CG301   CG3C51   NG3C51     9     0.000000     1.004160     4
   CG321    CG301   CG3C51     HGA1     9     0.000000     0.836800     3
   CG321    CG301   CG3C53   CG3C52     9   180.000000     2.092000     4
   CG321    CG301   CG3C53    NG3P2     9     0.000000     2.301200     3
   CG321    CG301   CG3C53     HGA1     9     0.000000     0.836800     3
   CG321    CG301   CG3RC1   CG3C52     9   180.000000     2.092000     4
   CG321    CG301   CG3RC1   CG3C54     9     0.000000     3.598240     3
   CG321    CG301   CG3RC1   CG3C54     9     0.000000     2.175680     4
   CG321    CG301   CG3RC1   CG3RC1     9     0.000000     0.627600     3
   CG321    CG301   CG3RC1     HGA1     9     0.000000     0.627600     3
   CG321    CG301    NG2D1   CG2D1O     9     0.000000     0.669440     1
   CG321    CG301    NG2D1   CG2D1O     9     0.000000     0.167360     2
   CG321    CG301    NG2D1   CG2D1O     9     0.000000     0.209200     3
   CG321    CG301    NG2D1   CG2D1O     9     0.000000     0.292880     4
   CG321    CG301    NG2D1   CG2D1O     9   180.000000     0.334720     6
   CG321    CG301    NG2D1   CG2D2O     9     0.000000     0.669440     1
   CG321    CG301    NG2D1   CG2D2O     9     0.000000     0.167360     2
   CG321    CG301    NG2D1   CG2D2O     9     0.000000     0.209200     3
   CG321    CG301    NG2D1   CG2D2O     9     0.000000     0.292880     4
   CG321    CG301    NG2D1   CG2D2O     9   180.000000     0.334720     6
   CG321    CG301    NG2O1    OG2N1     9   180.000000     1.338880     2
   CG321    CG301    NG2O1    OG2N1     9   180.000000     0.627600     4
   CG321    CG301    NG2O1    OG2N1     9   180.000000     0.125520     6
   CG321    CG301    NG2P1    CG2N2     9   180.000000     0.000000     6
   CG321    CG301    NG2P1     HGP2     9   180.000000     0.000000     6
   CG321    CG301   NG2R51   CG2R51     9     0.000000     4.351360     1
   CG321    CG301   NG2R51   CG2R51     9   180.000000     1.338880     2
   CG321    CG301   NG2R51   CG2R51     9     0.000000     0.334720     3
   CG321    CG301   NG2R51   CG2R51     9   180.000000     0.167360     4
   CG321    CG301   NG2R51   CG2R51     9   180.000000     3.807440     6
   CG321    CG301   NG2R51   CG2R53     9     0.000000     0.418400     1
   CG321    CG301   NG2R51   CG2R53     9   180.000000     5.732080     2
   CG321    CG301   NG2R51   CG2R53     9     0.000000     0.000000     3
   CG321    CG301   NG2R51   CG2R53     9     0.000000    17.740160     4
   CG321    CG301   NG2R51   NG2R50     9     0.000000     0.125520     1
   CG321    CG301   NG2R51   NG2R50     9   180.000000     3.765600     2
   CG321    CG301   NG2R51   NG2R50     9   180.000000     0.585760     3
   CG321    CG301   NG2R51   NG2R50     9   180.000000     1.506240     4
   CG321    CG301    NG2S0    CG2O1     9     0.000000     7.531200     1
   CG321    CG301    NG2S0    CG321     9     0.000000    12.803040     1
   CG321    CG301    NG2S0    CG321     9   180.000000     0.460240     2
   CG321    CG301    NG2S1    CG2O1     9     0.000000     7.531200     1
   CG321    CG301    NG2S1    CG2O6     9     0.000000     7.531200     1
   CG321    CG301    NG2S1     HGP1     9     0.000000     0.000000     1
   CG321    CG301    NG311   CG2R61     9   180.000000     0.083680     1
   CG321    CG301    NG311   CG2R61     9     0.000000     0.543920     3
   CG321    CG301    NG311   CG2R61     9   180.000000     0.836800     6
   CG321    CG301    NG311    CG321     9     0.000000     1.004160     1
   CG321    CG301    NG311    CG321     9     0.000000     0.083680     2
   CG321    CG301    NG311    CG321     9   180.000000     9.539520     3
   CG321    CG301    NG311    CG331     9   180.000000     0.334720     1
   CG321    CG301    NG311    CG331     9   180.000000     0.125520     2
   CG321    CG301    NG311    CG331     9   180.000000     2.133840     3
   CG321    CG301    NG311   HGPAM1     9     0.000000     0.125520     2
   CG321    CG301    NG311   HGPAM1     9     0.000000     5.439200     3
   CG321    CG301    NG321   HGPAM2     9     0.000000     1.673600     3
   CG321    CG301    NG3P0    CG334     9     0.000000     1.087840     3
   CG321    CG301    NG3P2    CG314     9     0.000000     0.418400     3
   CG321    CG301    NG3P2     HGP2     9     0.000000     0.418400     3
   CG321    CG301    NG3P3     HGP2     9     0.000000     0.418400     3
   CG321    CG301    OG301    CG321     9     0.000000     4.811600     1
   CG321    CG301    OG301    CG321     9   180.000000     0.962320     2
   CG321    CG301    OG301    CG321     9     0.000000     2.050160     3
   CG321    CG301    OG301    CG331     9     0.000000     4.811600     1
   CG321    CG301    OG301    CG331     9   180.000000     0.962320     2
   CG321    CG301    OG301    CG331     9     0.000000     2.050160     3
   CG321    CG301    OG311     HGP1     9     0.000000     4.727920     1
   CG321    CG301    OG311     HGP1     9     0.000000     0.585760     2
   CG321    CG301    OG311     HGP1     9     0.000000     1.004160     3
   CG321    CG301   OG3C61    CG301     9   180.000000     2.217520     1
   CG321    CG301   OG3C61    CG301     9     0.000000     2.845120     2
   CG321    CG301   OG3C61    CG301     9   180.000000     0.878640     3
   CG321    CG301   OG3C61    CG301     9     0.000000     0.627600     4
   CG321    CG301   OG3C61    CG311     9   180.000000     2.217520     1
   CG321    CG301   OG3C61    CG311     9     0.000000     2.845120     2
   CG321    CG301   OG3C61    CG311     9   180.000000     0.878640     3
   CG321    CG301   OG3C61    CG311     9     0.000000     0.627600     4
   CG321    CG301   OG3C61    CG321     9   180.000000     2.217520     1
   CG321    CG301   OG3C61    CG321     9     0.000000     2.845120     2
   CG321    CG301   OG3C61    CG321     9   180.000000     0.878640     3
   CG321    CG301   OG3C61    CG321     9     0.000000     0.627600     4
   CG321    CG301   OG3C61    CG324     9   180.000000     1.882800     1
   CG321    CG301   OG3C61    CG324     9   180.000000     5.564720     2
   CG321    CG301   OG3C61    CG324     9   180.000000     1.129680     3
   CG321    CG301   OG3C61    CG324     9   180.000000     6.443360     4
   CG321    CG301   OG3C61   CG3RC1     9     0.000000     1.757280     1
   CG321    CG301   OG3C61   CG3RC1     9     0.000000     6.443360     2
   CG321    CG301   OG3C61   CG3RC1     9     0.000000     2.928800     3
   CG321    CG301   OG3C61   CG3RC1     9     0.000000     1.799120     4
   CG321    CG301   OG3R60   CG2D1O     9     0.000000     0.000000     2
   CG321    CG301   OG3R60   CG2D1O     9     0.000000     5.230000     3
   CG321    CG301   OG3R60   CG2D2O     9     0.000000     0.000000     2
   CG321    CG301   OG3R60   CG2D2O     9     0.000000     5.230000     3
   CG321    CG301   OG3R60    CG2O6     9   180.000000     0.585760     3
   CG321    CG301   OG3R60    CG2O6     9     0.000000     0.167360     6
   CG321    CG301    SG311   CG2R61     9   180.000000     0.585760     1
   CG321    CG301    SG311   CG2R61     9   180.000000     0.251040     3
   CG321    CG301    SG311   CG2R61     9     0.000000     2.092000     4
   CG321    CG301    SG311    CG321     9     0.000000     5.606560     1
   CG321    CG301    SG311    CG321     9     0.000000     1.087840     3
   CG321    CG301    SG3O2    CG321     9   180.000000     2.510400     1
   CG321    CG301    SG3O2    CG321     9   180.000000     5.020800     2
   CG321    CG301    SG3O2    CG321     9     0.000000     0.125520     3
   CG321    CG301    SG3O2    OG2P1     9   180.000000     0.292880     3
   CG321    CG301      CT1        C     9     0.000000     0.836800     3
   CG321    CG311    CG311    CG321     9   180.000000     2.092000     4
   CG321    CG311    CG311    CG324     9     0.000000     0.836800     3
   CG321    CG311    CG311    CG331     9   180.000000     2.092000     4
   CG321    CG311    CG311   CG3RC1     9     0.000000     0.627600     3
   CG321    CG311    CG311    NG2D1     9   180.000000     3.305360     1
   CG321    CG311    CG311    NG2D1     9     0.000000     0.836800     2
   CG321    CG311    CG311    NG2D1     9     0.000000     0.502080     3
   CG321    CG311    CG311    NG2D1     9     0.000000     0.627600     4
   CG321    CG311    CG311    NG2D1     9   180.000000     0.209200     6
   CG321    CG311    CG311   NG2R51     9     0.000000     1.840960     3
   CG321    CG311    CG311   NG2R51     9     0.000000     7.447520     4
   CG321    CG311    CG311    NG2S0     9     0.000000     0.836800     3
   CG321    CG311    CG311    NG2S1     9     0.000000     0.836800     3
   CG321    CG311    CG311    NG301     9     0.000000     1.673600     1
   CG321    CG311    CG311    NG301     9     0.000000     3.347200     3
   CG321    CG311    CG311    NG311     9     0.000000     1.673600     1
   CG321    CG311    CG311    NG311     9     0.000000     3.347200     3
   CG321    CG311    CG311    NG321     9     0.000000     1.673600     1
   CG321    CG311    CG311    NG321     9     0.000000     3.347200     3
   CG321    CG311    CG311   NG3C51     9     0.000000     1.673600     1
   CG321    CG311    CG311   NG3C51     9     0.000000     3.347200     3
   CG321    CG311    CG311    OG301     9   180.000000     0.669440     1
   CG321    CG311    CG311    OG301     9     0.000000     1.631760     2
   CG321    CG311    CG311    OG311     9     0.000000     0.585760     3
   CG321    CG311    CG311   OG3C61     9   180.000000     0.794960     1
   CG321    CG311    CG311   OG3C61     9   180.000000     4.184000     2
   CG321    CG311    CG311   OG3C61     9     0.000000     2.510400     3
   CG321    CG311    CG311   OG3C61     9   180.000000     0.334720     4
   CG321    CG311    CG311   OG3R60     9   180.000000     0.794960     1
   CG321    CG311    CG311   OG3R60     9   180.000000     4.184000     2
   CG321    CG311    CG311   OG3R60     9     0.000000     2.510400     3
   CG321    CG311    CG311   OG3R60     9   180.000000     0.334720     4
   CG321    CG311    CG311    SG311     9     0.000000     0.836800     3
   CG321    CG311    CG311    SG3O2     9     0.000000     2.468560     1
   CG321    CG311    CG311    SG3O2     9   180.000000     0.962320     2
   CG321    CG311    CG311    SG3O2     9   180.000000     4.476880     3
   CG321    CG311    CG311    SG3O2     9   180.000000     2.845120     4
   CG321    CG311    CG311     HGA1     9     0.000000     0.815880     3
   CG321    CG311    CG312    CG2O1     9   180.000000     0.083680     3
   CG321    CG311    CG312    CG311     9   180.000000     1.799120     3
   CG321    CG311    CG312    CG324     9   180.000000     0.000000     3
   CG321    CG311    CG312     FGA2     9     0.000000     1.046000     3
   CG321    CG311    CG314    CG2O1     9     0.000000     0.836800     3
   CG321    CG311    CG314    CG2O3     9     0.000000     0.836800     3
   CG321    CG311    CG314    CG311     9   180.000000     2.092000     4
   CG321    CG311    CG314    CG321     9   180.000000     2.092000     4
   CG321    CG311    CG314    CG331     9   180.000000     2.092000     4
   CG321    CG311    CG314    NG3P1     9     0.000000     0.836800     3
   CG321    CG311    CG314    NG3P2     9     0.000000     0.836800     3
   CG321    CG311    CG314    NG3P3     9     0.000000     0.836800     3
   CG321    CG311    CG314    OG311     9     0.000000     0.585760     3
   CG321    CG311    CG314     HGA1     9     0.000000     0.815880     3
   CG321    CG311    CG321    CG2D1     9     0.000000     0.836800     3
   CG321    CG311    CG321   CG2DC1     9     0.000000     0.836800     3
   CG321    CG311    CG321   CG2DC2     9     0.000000     0.836800     3
   CG321    CG311    CG321    CG2O1     9     0.000000     0.836800     3
   CG321    CG311    CG321    CG2O5     9     0.000000     0.836800     3
   CG321    CG311    CG321   CG2R51     9     0.000000     0.167360     3
   CG321    CG311    CG321   CG2R53     9     0.000000     0.167360     3
   CG321    CG311    CG321   CG2R61     9     0.000000     0.167360     3
   CG321    CG311    CG321   CG2R62     9     0.000000     0.167360     3
   CG321    CG311    CG321    CG301     9     0.000000     0.836800     3
   CG321    CG311    CG321    CG311     9     0.000000     0.836800     3
   CG321    CG311    CG321    CG314     9     0.000000     0.836800     3
   CG321    CG311    CG321    CG321     9     0.000000     0.836800     3
   CG321    CG311    CG321    CG322     9     0.000000     3.096160     3
   CG321    CG311    CG321    CG324     9     0.000000     0.836800     3
   CG321    CG311    CG321    CG331     9     0.000000     0.836800     3
   CG321    CG311    CG321   CG3C41     9     0.000000     0.836800     3
   CG321    CG311    CG321   CG3C50     9     0.000000     1.673600     3
   CG321    CG311    CG321   CG3RC1     9     0.000000     0.627600     3
   CG321    CG311    CG321   NG2R51     9     0.000000     0.836800     3
   CG321    CG311    CG321   NG2R61     9     0.000000     0.836800     3
   CG321    CG311    CG321    NG2S1     9     0.000000     0.836800     3
   CG321    CG311    CG321    NG301     9     0.000000     0.836800     3
   CG321    CG311    CG321    NG311     9     0.000000     0.836800     3
   CG321    CG311    CG321    NG321     9     0.000000     0.836800     3
   CG321    CG311    CG321    OG302     9   180.000000     0.836800     3
   CG321    CG311    CG321    OG303     9   180.000000     0.836800     3
   CG321    CG311    CG321    OG311     9   180.000000     0.836800     3
   CG321    CG311    CG321   OG3C61     9   180.000000     0.794960     1
   CG321    CG311    CG321   OG3C61     9   180.000000     4.184000     2
   CG321    CG311    CG321   OG3C61     9     0.000000     2.510400     3
   CG321    CG311    CG321   OG3C61     9   180.000000     0.334720     4
   CG321    CG311    CG321   OG3R60     9   180.000000     0.794960     1
   CG321    CG311    CG321   OG3R60     9   180.000000     4.184000     2
   CG321    CG311    CG321   OG3R60     9     0.000000     2.510400     3
   CG321    CG311    CG321   OG3R60     9   180.000000     0.334720     4
   CG321    CG311    CG321    SG311     9     0.000000     0.836800     3
   CG321    CG311    CG321    SG3O2     9   180.000000     3.932960     1
   CG321    CG311    CG321    SG3O2     9     0.000000     1.589920     2
   CG321    CG311    CG321    SG3O2     9     0.000000     0.460240     3
   CG321    CG311    CG321    SG3O3     9   180.000000     3.932960     1
   CG321    CG311    CG321    SG3O3     9     0.000000     1.589920     2
   CG321    CG311    CG321    SG3O3     9     0.000000     0.753120     3
   CG321    CG311    CG321     HGA2     9     0.000000     0.815880     1
   CG321    CG311    CG322    CG324     9   180.000000     0.209200     3
   CG321    CG311    CG322     FGA1     9     0.000000     1.045582     3
   CG321    CG311    CG322     HGA6     9     0.000000     1.066502     3
   CG321    CG311    CG324    NG2P1     9     0.000000     0.815880     3
   CG321    CG311    CG324   NG2R52     9     0.000000     0.836800     3
   CG321    CG311    CG324    NG3P1     9     0.000000     0.815880     3
   CG321    CG311    CG324    NG3P2     9     0.000000     0.815880     3
   CG321    CG311    CG324    NG3P3     9     0.000000     0.815880     3
   CG321    CG311    CG324     HGA2     9     0.000000     0.815880     3
   CG321    CG311    CG331     HGA3     9     0.000000     0.836800     3
   CG321    CG311   CG3C41    CG324     9     0.000000     1.506240     3
   CG321    CG311   CG3C41   CG3C41     9     0.000000     0.167360     3
   CG321    CG311   CG3C41   CG3C41     9     0.000000     1.882800     4
   CG321    CG311   CG3C50    CG311     9     0.000000     1.673600     3
   CG321    CG311   CG3C50    CG324     9   180.000000     6.861760     3
   CG321    CG311   CG3C50   CG3C52     9   180.000000     2.092000     4
   CG321    CG311   CG3C50   OG3C51     9   180.000000     7.070960     3
   CG321    CG311   CG3C50   OG3C51     9     0.000000    14.644000     4
   CG321    CG311   CG3C50    SG311     9   180.000000     1.799120     3
   CG321    CG311   CG3C51   CG3C51     9   180.000000     2.092000     4
   CG321    CG311   CG3C51   CG3C52     9   180.000000     2.092000     4
   CG321    CG311   CG3C51   CG3C53     9     0.000000     0.125520     3
   CG321    CG311   CG3C51   CG3C53     9   180.000000     1.673600     4
   CG321    CG311   CG3C51   CG3C54     9     0.000000     1.464400     3
   CG321    CG311   CG3C51   CG3C54     9     0.000000     0.041840     4
   CG321    CG311   CG3C51   CG3RC1     9     0.000000     0.627600     3
   CG321    CG311   CG3C51   NG2R53     9   180.000000     0.543920     3
   CG321    CG311   CG3C51   NG2R53     9     0.000000     1.004160     4
   CG321    CG311   CG3C51   OG3C51     9     0.000000     0.920480     3
   CG321    CG311   CG3C51   OG3C51     9     0.000000     0.669440     4
   CG321    CG311   CG3C51     HGA1     9     0.000000     0.815880     3
   CG321    CG311   CG3C53   CG3C52     9   180.000000     2.092000     4
   CG321    CG311   CG3C53    NG3P2     9     0.000000     5.020800     3
   CG321    CG311   CG3C53     HGA1     9     0.000000     0.836800     3
   CG321    CG311   CG3RC1   CG2RC0     9   180.000000     1.882800     3
   CG321    CG311   CG3RC1   CG2RC0     9   180.000000     0.209200     4
   CG321    CG311   CG3RC1    CG331     9     0.000000     0.209200     3
   CG321    CG311   CG3RC1   CG3C51     9     0.000000     0.209200     3
   CG321    CG311   CG3RC1   CG3C52     9   180.000000     2.092000     4
   CG321    CG311   CG3RC1   CG3RC1     9     0.000000     0.627600     3
   CG321    CG311   CG3RC1    OG311     9   180.000000     0.627600     3
   CG321    CG311   CG3RC1    OG311     9     0.000000     1.129680     4
   CG321    CG311   CG3RC1   OG3C51     9     0.000000     3.430880     3
   CG321    CG311   CG3RC1   OG3C51     9   180.000000     0.711280     4
   CG321    CG311   CG3RC1     HGA1     9     0.000000     0.627600     3
   CG321    CG311    NG2D1   CG2DC1     9     0.000000     2.552240     1
   CG321    CG311    NG2D1   CG2DC1     9   180.000000     2.594080     2
   CG321    CG311    NG2D1   CG2DC1     9     0.000000     1.046000     3
   CG321    CG311    NG2D1   CG2DC1     9     0.000000     2.510400     4
   CG321    CG311    NG2D1   CG2DC1     9     0.000000     1.046000     6
   CG321    CG311    NG2D1   CG2DC2     9     0.000000     2.552240     1
   CG321    CG311    NG2D1   CG2DC2     9   180.000000     2.594080     2
   CG321    CG311    NG2D1   CG2DC2     9     0.000000     1.046000     3
   CG321    CG311    NG2D1   CG2DC2     9     0.000000     2.510400     4
   CG321    CG311    NG2D1   CG2DC2     9     0.000000     1.046000     6
   CG321    CG311    NG2D1   CG2R64     9   180.000000     6.652560     1
   CG321    CG311    NG2D1   CG2R64     9   180.000000     3.430880     2
   CG321    CG311    NG2D1   CG2R64     9   180.000000     8.075120     3
   CG321    CG311    NG2D1   CG2R64     9   180.000000     0.543920     6
   CG321    CG311    NG2O1    OG2N1     9   180.000000     0.334720     2
   CG321    CG311    NG2O1    OG2N1     9     0.000000     0.125520     4
   CG321    CG311    NG2O1    OG2N1     9     0.000000     0.083680     6
   CG321    CG311   NG2R51   CG2R51     9     0.000000     1.631760     1
   CG321    CG311   NG2R51   CG2R51     9     0.000000     1.757280     2
   CG321    CG311   NG2R51   CG2R51     9     0.000000     0.334720     3
   CG321    CG311   NG2R51   CG2R51     9     0.000000     0.251040     4
   CG321    CG311   NG2R51   CG2R53     9     0.000000     6.736240     1
   CG321    CG311   NG2R51   CG2R53     9   180.000000     1.171520     2
   CG321    CG311   NG2R51   CG2R53     9     0.000000     0.418400     3
   CG321    CG311   NG2R51   CG2R53     9   180.000000     4.016640     4
   CG321    CG311   NG2R51   CG2R53     9   180.000000     6.861760     6
   CG321    CG311   NG2R51   CG2RC0     9     0.000000     0.627600     1
   CG321    CG311   NG2R51   CG2RC0     9     0.000000     2.384880     2
   CG321    CG311   NG2R51   CG2RC0     9   180.000000     1.882800     3
   CG321    CG311   NG2R51   CG2RC0     9   180.000000     0.627600     4
   CG321    CG311   NG2R51   CG2RC0     9     0.000000     1.380720     6
   CG321    CG311   NG2R51   NG2R50     9   180.000000     1.631760     1
   CG321    CG311   NG2R51   NG2R50     9     0.000000     1.757280     2
   CG321    CG311   NG2R51   NG2R50     9   180.000000     0.334720     3
   CG321    CG311   NG2R51   NG2R50     9     0.000000     0.251040     4
   CG321    CG311   NG2R53   CG2R53     9     0.000000     0.000000     1
   CG321    CG311   NG2R53   CG3C52     9   180.000000     1.297040     1
   CG321    CG311   NG2R53   CG3C52     9     0.000000     9.246640     2
   CG321    CG311   NG2R53   CG3C52     9   180.000000     0.083680     6
   CG321    CG311   NG2R61   CG2R62     9     0.000000     7.070960     1
   CG321    CG311   NG2R61   CG2R63     9     0.000000     2.092000     2
   CG321    CG311   NG2R61   CG2R64     9     0.000000     2.092000     2
   CG321    CG311    NG2S0    CG2O1     9     0.000000     7.531200     1
   CG321    CG311    NG2S0    CG2O3     9     0.000000     7.531200     1
   CG321    CG311    NG2S0    CG2O6     9     0.000000     7.531200     1
   CG321    CG311    NG2S0   CG2R61     9     0.000000    14.279992     1
   CG321    CG311    NG2S0   CG2R61     9     0.000000     3.142184     3
   CG321    CG311    NG2S0    CG321     9     0.000000    12.803040     1
   CG321    CG311    NG2S0    CG321     9   180.000000     0.460240     2
   CG321    CG311    NG2S0   CG3C31     9     0.000000     1.129680     1
   CG321    CG311    NG2S0   CG3C31     9     0.000000     4.435040     2
   CG321    CG311    NG2S0   CG3C31     9   180.000000     0.292880     3
   CG321    CG311    NG2S1    CG2O1     9     0.000000     7.531200     1
   CG321    CG311    NG2S1    CG2O3     9     0.000000     7.531200     1
   CG321    CG311    NG2S1    CG2O6     9     0.000000     7.531200     1
   CG321    CG311    NG2S1     HGP1     9     0.000000     0.000000     1
   CG321    CG311    NG301    CG311     9   180.000000     5.941280     1
   CG321    CG311    NG301    CG311     9     0.000000     3.430880     2
   CG321    CG311    NG301    CG311     9     0.000000     4.267680     3
   CG321    CG311    NG301    CG321     9   180.000000     5.941280     1
   CG321    CG311    NG301    CG321     9     0.000000     3.430880     2
   CG321    CG311    NG301    CG321     9     0.000000     4.267680     3
   CG321    CG311    NG301    CG331     9   180.000000     5.941280     1
   CG321    CG311    NG301    CG331     9     0.000000     3.430880     2
   CG321    CG311    NG301    CG331     9     0.000000     4.267680     3
   CG321    CG311    NG301    SG3O2     9     0.000000     0.418400     1
   CG321    CG311    NG301    SG3O2     9     0.000000     2.928800     2
   CG321    CG311    NG301    SG3O2     9     0.000000     0.418400     3
   CG321    CG311    NG311   CG2D1O     9     0.000000     1.715440     1
   CG321    CG311    NG311   CG2D1O     9     0.000000     2.008320     3
   CG321    CG311    NG311   CG2D1O     9     0.000000     2.259360     4
   CG321    CG311    NG311   CG2D2O     9     0.000000     1.715440     1
   CG321    CG311    NG311   CG2D2O     9     0.000000     2.008320     3
   CG321    CG311    NG311   CG2D2O     9     0.000000     2.259360     4
   CG321    CG311    NG311   CG2R61     9   180.000000     3.347200     1
   CG321    CG311    NG311   CG2R61     9     0.000000     4.602400     3
   CG321    CG311    NG311    CG311     9   180.000000     5.941280     1
   CG321    CG311    NG311    CG311     9     0.000000     3.430880     2
   CG321    CG311    NG311    CG311     9     0.000000     4.267680     3
   CG321    CG311    NG311    CG314     9   180.000000     5.941280     1
   CG321    CG311    NG311    CG314     9     0.000000     3.430880     2
   CG321    CG311    NG311    CG314     9     0.000000     4.267680     3
   CG321    CG311    NG311    CG321     9   180.000000     5.941280     1
   CG321    CG311    NG311    CG321     9     0.000000     3.430880     2
   CG321    CG311    NG311    CG321     9     0.000000     4.267680     3
   CG321    CG311    NG311    CG331     9   180.000000     5.941280     1
   CG321    CG311    NG311    CG331     9     0.000000     3.430880     2
   CG321    CG311    NG311    CG331     9     0.000000     4.267680     3
   CG321    CG311    NG311   OG3R60     9   180.000000     0.627600     1
   CG321    CG311    NG311   OG3R60     9   180.000000     0.669440     2
   CG321    CG311    NG311   OG3R60     9     0.000000     3.974800     3
   CG321    CG311    NG311     HGP1     9     0.000000     0.418400     3
   CG321    CG311    NG311   HGPAM1     9     0.000000     1.255200     3
   CG321    CG311    NG321   HGPAM2     9     0.000000     1.673600     3
   CG321    CG311   NG3C51   CG2R53     9   180.000000     6.443360     1
   CG321    CG311   NG3C51   CG2R53     9   180.000000     1.422560     3
   CG321    CG311   NG3C51   CG3C52     9   180.000000     0.962320     1
   CG321    CG311   NG3C51   CG3C52     9     0.000000     6.485200     2
   CG321    CG311   NG3C51   OG3C51     9     0.000000     0.502080     1
   CG321    CG311   NG3C51   OG3C51     9     0.000000     5.146320     2
   CG321    CG311   NG3C51   OG3C51     9     0.000000     2.635920     3
   CG321    CG311    OG301    CG321     9     0.000000     1.673600     1
   CG321    CG311    OG301    CG321     9     0.000000     2.050160     3
   CG321    CG311    OG301    CG331     9     0.000000     1.673600     1
   CG321    CG311    OG301    CG331     9     0.000000     2.050160     3
   CG321    CG311    OG301   CG3C51     9     0.000000     1.882800     3
   CG321    CG311    OG301    OG311     9   180.000000     4.602400     1
   CG321    CG311    OG301    OG311     9     0.000000     2.092000     3
   CG321    CG311    OG302    CG2O2     9   180.000000     2.928800     1
   CG321    CG311    OG311     HGP1     9     0.000000     1.255200     1
   CG321    CG311    OG311     HGP1     9     0.000000     1.255200     3
   CG321    CG311   OG3C61    CG301     9   180.000000     2.217520     1
   CG321    CG311   OG3C61    CG301     9     0.000000     2.845120     2
   CG321    CG311   OG3C61    CG301     9   180.000000     0.878640     3
   CG321    CG311   OG3C61    CG301     9     0.000000     0.627600     4
   CG321    CG311   OG3C61    CG311     9   180.000000     2.217520     1
   CG321    CG311   OG3C61    CG311     9     0.000000     2.845120     2
   CG321    CG311   OG3C61    CG311     9   180.000000     0.878640     3
   CG321    CG311   OG3C61    CG311     9     0.000000     0.627600     4
   CG321    CG311   OG3C61    CG321     9   180.000000     2.217520     1
   CG321    CG311   OG3C61    CG321     9     0.000000     2.845120     2
   CG321    CG311   OG3C61    CG321     9   180.000000     0.878640     3
   CG321    CG311   OG3C61    CG321     9     0.000000     0.627600     4
   CG321    CG311   OG3C61   CG3C41     9   180.000000     2.217520     1
   CG321    CG311   OG3C61   CG3C41     9     0.000000     2.845120     2
   CG321    CG311   OG3C61   CG3C41     9   180.000000     0.878640     3
   CG321    CG311   OG3C61   CG3C41     9     0.000000     0.627600     4
   CG321    CG311   OG3C61   CG3C50     9     0.000000     0.585760     1
   CG321    CG311   OG3C61   CG3C50     9     0.000000     0.585760     2
   CG321    CG311   OG3C61   CG3C50     9     0.000000     2.008320     3
   CG321    CG311   OG3C61   CG3C50     9     0.000000     1.589920     4
   CG321    CG311   OG3R60   CG2D1O     9     0.000000     1.799120     3
   CG321    CG311   OG3R60   CG2D1O     9   180.000000     2.635920     4
   CG321    CG311   OG3R60   CG2D2O     9     0.000000     1.799120     3
   CG321    CG311   OG3R60   CG2D2O     9   180.000000     2.635920     4
   CG321    CG311   OG3R60    CG2O6     9     0.000000     4.518720     1
   CG321    CG311   OG3R60    CG2O6     9   180.000000     3.807440     4
   CG321    CG311   OG3R60   NG2R61     9   180.000000     3.430880     1
   CG321    CG311   OG3R60   NG2R61     9     0.000000     6.443360     2
   CG321    CG311   OG3R60   NG2R61     9   180.000000     0.502080     3
   CG321    CG311    SG311    CG311     9   180.000000     1.004160     1
   CG321    CG311    SG311    CG311     9     0.000000     1.548080     3
   CG321    CG311    SG311    CG321     9   180.000000     1.004160     1
   CG321    CG311    SG311    CG321     9     0.000000     1.548080     3
   CG321    CG311    SG311     HGP3     9     0.000000     1.004160     1
   CG321    CG311    SG311     HGP3     9     0.000000     0.627600     2
   CG321    CG311    SG311     HGP3     9     0.000000     1.129680     3
   CG321    CG311    SG3O1    OG2P1     9     0.000000     0.962320     3
   CG321    CG311    SG3O2   CG2R61     9     0.000000    14.351120     2
   CG321    CG311    SG3O2   CG2R61     9     0.000000     1.255200     3
   CG321    CG311    SG3O2    CG311     9     0.000000     3.765600     1
   CG321    CG311    SG3O2    CG311     9     0.000000     1.464400     2
   CG321    CG311    SG3O2    CG311     9     0.000000     0.502080     3
   CG321    CG311    SG3O2    CG321     9     0.000000     3.765600     1
   CG321    CG311    SG3O2    CG321     9     0.000000     1.464400     2
   CG321    CG311    SG3O2    CG321     9     0.000000     0.502080     3
   CG321    CG311    SG3O2    CG331     9     0.000000     3.765600     1
   CG321    CG311    SG3O2    CG331     9     0.000000     1.464400     2
   CG321    CG311    SG3O2    CG331     9     0.000000     0.502080     3
   CG321    CG311    SG3O2    NG321     9     0.000000     0.418400     1
   CG321    CG311    SG3O2    NG321     9     0.000000     1.673600     2
   CG321    CG311    SG3O2    NG321     9     0.000000     1.506240     3
   CG321    CG311    SG3O2    OG2P1     9     0.000000     0.753120     3
   CG321    CG311    SG3O3    CG311     9   180.000000     0.753120     1
   CG321    CG311    SG3O3    CG311     9     0.000000     2.384880     3
   CG321    CG311    SG3O3    CG321     9   180.000000     0.753120     1
   CG321    CG311    SG3O3    CG321     9     0.000000     2.384880     3
   CG321    CG311    SG3O3    CG331     9   180.000000     0.753120     1
   CG321    CG311    SG3O3    CG331     9     0.000000     2.384880     3
   CG321    CG311    SG3O3    OG2P1     9   180.000000     6.694400     1
   CG321    CG311    SG3O3    OG2P1     9   180.000000     1.004160     2
   CG321    CG311    SG3O3    OG2P1     9   180.000000     0.125520     3
   CG321    CG311    CG2O1      NH1     9     0.000000     0.000000     1
   CG321    CG311    CG2O1        N     9     0.000000     0.000000     1
   CG321    CG311      CT1        C     9     0.000000     0.836800     3
   CG321    CG311     CTD1        C     9     0.000000     0.836800     3
   CG321    CG312    CG321    CG314     9   180.000000     2.175680     2
   CG321    CG312    CG321    CG314     9   180.000000     0.167360     3
   CG321    CG312    CG321    CG314     9   180.000000     0.000000     6
   CG321    CG312    CG321    NG301     9   180.000000     0.669440     1
   CG321    CG312    CG321    NG301     9     0.000000     6.694400     2
   CG321    CG312    CG321     HGA2     9     0.000000     0.000000     3
   CG321    CG312    CG322    CG321     9     0.000000     5.983120     3
   CG321    CG312    CG322    CG331     9     0.000000     1.297040     1
   CG321    CG312    CG322    CG331     9   180.000000     0.000000     3
   CG321    CG312    CG322     FGA1     9   180.000000     0.000000     3
   CG321    CG312    CG324    NG2P1     9   180.000000     0.920480     3
   CG321    CG312    CG324     HGA2     9     0.000000     0.000000     3
   CG321    CG314    CG314    CG331     9   180.000000     2.092000     4
   CG321    CG314    CG314    NG3P2     9     0.000000     0.836800     3
   CG321    CG314    CG314     HGA1     9     0.000000     0.836800     3
   CG321    CG314    CG321   CG2DC1     9     0.000000     0.836800     3
   CG321    CG314    CG321   CG2DC2     9     0.000000     0.836800     3
   CG321    CG314    CG321   CG2R52     9     0.000000     0.167360     3
   CG321    CG314    CG321    CG311     9     0.000000     0.836800     3
   CG321    CG314    CG321    CG312     9   180.000000     2.301200     2
   CG321    CG314    CG321    CG312     9     0.000000     3.514560     3
   CG321    CG314    CG321    CG314     9     0.000000     0.836800     3
   CG321    CG314    CG321    CG321     9     0.000000     0.836800     3
   CG321    CG314    CG321    CG322     9   180.000000     2.217520     3
   CG321    CG314    CG321    CG322     9   180.000000     1.548080     6
   CG321    CG314    CG321    CG324     9     0.000000     0.836800     3
   CG321    CG314    CG321    NG2S1     9     0.000000     0.836800     3
   CG321    CG314    CG321    NG301     9     0.000000     0.836800     3
   CG321    CG314    CG321    OG311     9   180.000000     0.836800     3
   CG321    CG314    CG321   OG3C61     9   180.000000     0.794960     1
   CG321    CG314    CG321   OG3C61     9   180.000000     4.184000     2
   CG321    CG314    CG321   OG3C61     9     0.000000     2.510400     3
   CG321    CG314    CG321   OG3C61     9   180.000000     0.334720     4
   CG321    CG314    CG321     HGA2     9     0.000000     0.815880     3
   CG321    CG314    CG324    NG3P1     9     0.000000     0.836800     3
   CG321    CG314    CG324    NG3P2     9     0.000000     0.836800     3
   CG321    CG314    CG324     HGA2     9     0.000000     0.836800     3
   CG321    CG314    CG331     HGA3     9     0.000000     0.836800     3
   CG321    CG314   CG3RC1   CG3C52     9   180.000000     2.092000     4
   CG321    CG314   CG3RC1   CG3RC1     9     0.000000     0.627600     3
   CG321    CG314   CG3RC1     HGA1     9     0.000000     0.627600     3
   CG321    CG314    NG2P1    CG2N1     9   180.000000     0.000000     6
   CG321    CG314    NG2P1    CG314     9   180.000000     1.255200     3
   CG321    CG314    NG2P1    CG314     9   180.000000     6.443360     4
   CG321    CG314    NG2P1     HGP2     9   180.000000     0.000000     6
   CG321    CG314   NG2R52   CG2R51     9     0.000000     0.083680     2
   CG321    CG314   NG2R52   CG2R51     9   180.000000     0.962320     3
   CG321    CG314   NG2R52   CG2R53     9   180.000000     2.719600     2
   CG321    CG314   NG2R52   CG2R53     9     0.000000     2.928800     3
   CG321    CG314   NG2R61   CG2R62     9     0.000000     7.070960     1
   CG321    CG314    NG3P0    CG314     9     0.000000     1.087840     3
   CG321    CG314    NG3P0    CG324     9     0.000000     1.087840     3
   CG321    CG314    NG3P0    CG334     9     0.000000     1.087840     3
   CG321    CG314    NG3P0    OG312     9   180.000000     6.443360     3
   CG321    CG314    NG3P1   CG2R61     9   180.000000     4.267680     2
   CG321    CG314    NG3P1   CG2R61     9   180.000000     4.225840     3
   CG321    CG314    NG3P1    CG314     9     0.000000     0.418400     3
   CG321    CG314    NG3P1    CG324     9     0.000000     0.418400     3
   CG321    CG314    NG3P1    CG334     9     0.000000     0.418400     3
   CG321    CG314    NG3P1     HGP2     9     0.000000     0.418400     3
   CG321    CG314    NG3P2    CG314     9     0.000000     0.418400     3
   CG321    CG314    NG3P2    CG324     9     0.000000     0.418400     3
   CG321    CG314    NG3P2   CG3C50     9     0.000000     8.702720     3
   CG321    CG314    NG3P2     HGP2     9     0.000000     0.418400     3
   CG321    CG314    NG3P3     HGP2     9     0.000000     0.418400     3
   CG321    CG321    CG321    CG321     9     0.000000     0.269868     2
   CG321    CG321    CG321    CG321     9   180.000000     0.626554     3
   CG321    CG321    CG321    CG321     9     0.000000     0.395723     4
   CG321    CG321    CG321    CG321     9     0.000000     0.470742     5
   CG321    CG321    CG321    CG322     9     0.000000     2.761440     2
   CG321    CG321    CG321    CG322     9     0.000000     1.882800     3
   CG321    CG321    CG321    CG322     9   180.000000     0.669440     4
   CG321    CG321    CG321    CG322     9   180.000000     1.631760     5
   CG321    CG321    CG321    CG324     9     0.000000     0.815880     3
   CG321    CG321    CG321    CG331     9     0.000000     0.629734     2
   CG321    CG321    CG321    CG331     9   180.000000     0.340285     3
   CG321    CG321    CG321    CG331     9     0.000000     0.452876     4
   CG321    CG321    CG321    CG331     9     0.000000     0.853159     5
   CG321    CG321    CG321   CG3C31     9     0.000000     1.673600     3
   CG321    CG321    CG321   CG3C41     9     0.000000     1.673600     3
   CG321    CG321    CG321   CG3C50     9     0.000000     1.673600     3
   CG321    CG321    CG321   CG3C51     9     0.000000     1.673600     3
   CG321    CG321    CG321   CG3C53     9     0.000000     2.092000     3
   CG321    CG321    CG321   CG3C53     9   180.000000     2.092000     6
   CG321    CG321    CG321   CG3RC1     9     0.000000     0.627600     3
   CG321    CG321    CG321    NG2D1     9   180.000000     3.305360     1
   CG321    CG321    CG321    NG2D1     9     0.000000     0.836800     2
   CG321    CG321    CG321    NG2D1     9     0.000000     0.502080     3
   CG321    CG321    CG321    NG2D1     9     0.000000     0.627600     4
   CG321    CG321    CG321    NG2D1     9   180.000000     0.209200     6
   CG321    CG321    CG321   NG2R43     9     0.000000     0.836800     3
   CG321    CG321    CG321   NG2R51     9     0.000000     0.836800     3
   CG321    CG321    CG321   NG2R53     9     0.000000     0.836800     3
   CG321    CG321    CG321   NG2R61     9     0.000000     0.836800     3
   CG321    CG321    CG321    NG2S0     9     0.000000     0.836800     3
   CG321    CG321    CG321    NG2S1     9     0.000000     0.836800     3
   CG321    CG321    CG321    NG2S3     9     0.000000     0.836800     3
   CG321    CG321    CG321    NG301     9   180.000000     0.669440     1
   CG321    CG321    CG321    NG301     9     0.000000     1.631760     2
   CG321    CG321    CG321    NG311     9     0.000000     1.255200     3
   CG321    CG321    CG321    OG301     9   180.000000     0.669440     1
   CG321    CG321    CG321    OG301     9     0.000000     1.631760     2
   CG321    CG321    CG321    OG302     9     0.000000     0.815880     3
   CG321    CG321    CG321    OG303     9     0.000000     0.815880     3
   CG321    CG321    CG321    OG311     9     0.000000     0.815880     3
   CG321    CG321    CG321   OG3C61     9   180.000000     0.794960     1
   CG321    CG321    CG321   OG3C61     9   180.000000     4.184000     2
   CG321    CG321    CG321   OG3C61     9     0.000000     2.510400     3
   CG321    CG321    CG321   OG3C61     9   180.000000     0.334720     4
   CG321    CG321    CG321   OG3R60     9     0.000000     7.070960     1
   CG321    CG321    CG321   OG3R60     9     0.000000     6.066800     2
   CG321    CG321    CG321   OG3R60     9   180.000000     4.351360     3
   CG321    CG321    CG321   OG3R60     9   180.000000     1.840960     4
   CG321    CG321    CG321    SG311     9     0.000000     0.815880     3
   CG321    CG321    CG321    SG3O2     9   180.000000     3.932960     1
   CG321    CG321    CG321    SG3O2     9     0.000000     1.589920     2
   CG321    CG321    CG321    SG3O2     9     0.000000     0.460240     3
   CG321    CG321    CG321    SG3O3     9   180.000000     3.932960     1
   CG321    CG321    CG321    SG3O3     9     0.000000     1.589920     2
   CG321    CG321    CG321    SG3O3     9     0.000000     0.460240     3
   CG321    CG321    CG321     HGA2     9     0.000000     0.815880     3
   CG321    CG321    CG322    CG2O5     9     0.000000     2.175680     3
   CG321    CG321    CG322   CG2R61     9   180.000000     0.041840     3
   CG321    CG321    CG322   CG2R61     9     0.000000     2.384880     4
   CG321    CG321    CG322    CG312     9   180.000000     0.000000     3
   CG321    CG321    CG322    CG321     9     0.000000     9.037440     3
   CG321    CG321    CG322    CG321     9   180.000000     0.334720     4
   CG321    CG321    CG322    CG331     9     0.000000     3.765600     3
   CG321    CG321    CG322     FGA1     9   180.000000     1.422560     3
   CG321    CG321    CG322     HGA6     9   180.000000     0.083680     3
   CG321    CG321    CG324    NG2P1     9     0.000000     0.815880     3
   CG321    CG321    CG324   NG2R52     9     0.000000     0.836800     3
   CG321    CG321    CG324   NG2R61     9     0.000000     0.836800     3
   CG321    CG321    CG324    NG3P0     9     0.000000     4.184000     3
   CG321    CG321    CG324    NG3P1     9     0.000000     4.184000     3
   CG321    CG321    CG324    NG3P2     9     0.000000     4.184000     3
   CG321    CG321    CG324    NG3P3     9     0.000000     0.815880     3
   CG321    CG321    CG324     HGA2     9     0.000000     0.815880     3
   CG321    CG321    CG324     HGP5     9   180.000000     1.829663     3
   CG321    CG321    CG331     HGA3     9     0.000000     0.669440     3
   CG321    CG321   CG3C31    CG2O5     9   180.000000     0.083680     3
   CG321    CG321   CG3C31    CG321     9     0.000000     9.288480     3
   CG321    CG321   CG3C31    CG321     9     0.000000     0.292880     4
   CG321    CG321   CG3C31   CG3C31     9     0.000000     0.000000     3
   CG321    CG321   CG3C31    NG3P2     9   180.000000     6.945440     1
   CG321    CG321   CG3C31    NG3P2     9     0.000000     0.669440     3
   CG321    CG321   CG3C31   OG3C31     9   180.000000     1.966480     1
   CG321    CG321   CG3C31   OG3C31     9     0.000000     0.543920     3
   CG321    CG321   CG3C31    SG3O2     9     0.000000     5.648400     3
   CG321    CG321   CG3C31     HGA1     9     0.000000     0.753120     1
   CG321    CG321   CG3C31     HGA1     9     0.000000     4.476880     3
   CG321    CG321   CG3C41    CG2O4     9     0.000000     4.351360     3
   CG321    CG321   CG3C41    CG2O4     9     0.000000     3.472720     4
   CG321    CG321   CG3C41   CG2R53     9     0.000000     0.000000     2
   CG321    CG321   CG3C41   CG2R53     9     0.000000     2.133840     4
   CG321    CG321   CG3C41    CG321     9     0.000000     1.464400     3
   CG321    CG321   CG3C41    CG321     9   180.000000     8.284320     4
   CG321    CG321   CG3C41    CG324     9   180.000000     0.669440     3
   CG321    CG321   CG3C41   CG3C41     9   180.000000     4.309520     2
   CG321    CG321   CG3C41   CG3C41     9     0.000000     2.510400     3
   CG321    CG321   CG3C41   NG2R43     9     0.000000     0.000000     2
   CG321    CG321   CG3C41   NG2R43     9     0.000000     0.167360     3
   CG321    CG321   CG3C41    NG311     9   180.000000     5.522880     3
   CG321    CG321   CG3C41    NG311     9   180.000000     0.000000     4
   CG321    CG321   CG3C41   OG3C51     9   180.000000     1.422560     1
   CG321    CG321   CG3C41   OG3C51     9     0.000000     0.543920     3
   CG321    CG321   CG3C41   OG3R60     9   180.000000     4.100320     1
   CG321    CG321   CG3C41   OG3R60     9     0.000000     2.970640     3
   CG321    CG321   CG3C41    SG311     9   180.000000     7.322000     3
   CG321    CG321   CG3C41    SG311     9   180.000000     0.083680     6
   CG321    CG321   CG3C41     HGA1     9     0.000000     0.000000     3
   CG321    CG321   CG3C50   CG25C1     9   180.000000     3.347200     4
   CG321    CG321   CG3C50   CG25C2     9   180.000000     3.347200     4
   CG321    CG321   CG3C50    CG2D1     9   180.000000     1.506240     4
   CG321    CG321   CG3C50   CG2R51     9   180.000000     3.347200     4
   CG321    CG321   CG3C50   CG2R52     9   180.000000     3.347200     4
   CG321    CG321   CG3C50   CG2R53     9   180.000000     3.347200     4
   CG321    CG321   CG3C50   CG2RC0     9   180.000000     3.347200     4
   CG321    CG321   CG3C50    CG321     9     0.000000     1.673600     3
   CG321    CG321   CG3C50    CG324     9     0.000000    17.070720     3
   CG321    CG321   CG3C50   CG3C52     9   180.000000     1.506240     3
   CG321    CG321   CG3C50   CG3C52     9     0.000000     7.698560     4
   CG321    CG321   CG3C50   CG3C54     9     0.000000     2.343040     3
   CG321    CG321   CG3C50   CG3C54     9     0.000000     0.000000     4
   CG321    CG321   CG3C50   NG2R52     9     0.000000     2.761440     4
   CG321    CG321   CG3C50   NG2R53     9     0.000000     0.753120     3
   CG321    CG321   CG3C50   NG2R53     9     0.000000     2.050160     4
   CG321    CG321   CG3C50   NG3C51     9     0.000000     7.740400     4
   CG321    CG321   CG3C50   OG3C51     9     0.000000     2.008320     1
   CG321    CG321   CG3C50   OG3C51     9   180.000000     1.338880     3
   CG321    CG321   CG3C50    SG311     9     0.000000     5.439200     3
   CG321    CG321   CG3C51    CG2O5     9     0.000000     1.882800     3
   CG321    CG321   CG3C51    CG2O5     9     0.000000     0.251040     4
   CG321    CG321   CG3C51   CG3C51     9   180.000000     2.092000     4
   CG321    CG321   CG3C51   CG3C52     9   180.000000     2.092000     4
   CG321    CG321   CG3C51     HGA1     9     0.000000     0.836800     3
   CG321    CG321   CG3C53   CG3C51     9   180.000000     2.092000     4
   CG321    CG321   CG3C53    NG3P2     9     0.000000     0.460240     2
   CG321    CG321   CG3C53    NG3P2     9     0.000000     0.627600     3
   CG321    CG321   CG3C53     HGA1     9     0.000000     0.836800     3
   CG321    CG321   CG3RC1   CG25C1     9   180.000000     0.167360     3
   CG321    CG321   CG3RC1   CG25C1     9     0.000000     1.004160     4
   CG321    CG321   CG3RC1   CG25C2     9   180.000000     0.167360     3
   CG321    CG321   CG3RC1   CG25C2     9     0.000000     1.004160     4
   CG321    CG321   CG3RC1   CG2R51     9     0.000000     0.460240     2
   CG321    CG321   CG3RC1   CG2R51     9     0.000000     0.334720     4
   CG321    CG321   CG3RC1   CG2RC0     9   180.000000     1.882800     2
   CG321    CG321   CG3RC1   CG2RC0     9     0.000000     1.548080     3
   CG321    CG321   CG3RC1   CG2RC0     9     0.000000     2.426720     4
   CG321    CG321   CG3RC1    CG302     9   180.000000     0.292880     3
   CG321    CG321   CG3RC1    CG321     9     0.000000     0.836800     3
   CG321    CG321   CG3RC1    CG331     9     0.000000     0.836800     3
   CG321    CG321   CG3RC1   CG3C31     9   180.000000     0.502080     2
   CG321    CG321   CG3RC1   CG3C31     9     0.000000    11.338640     3
   CG321    CG321   CG3RC1   CG3C41     9     0.000000     5.773920     3
   CG321    CG321   CG3RC1   CG3C41     9   180.000000     1.213360     4
   CG321    CG321   CG3RC1   CG3C41     9     0.000000     0.209200     6
   CG321    CG321   CG3RC1   CG3C50     9     0.000000     0.669440     3
   CG321    CG321   CG3RC1   CG3C51     9     0.000000     0.661072     3
   CG321    CG321   CG3RC1   CG3C52     9     0.000000     0.836800     3
   CG321    CG321   CG3RC1   CG3C54     9     0.000000     0.836800     3
   CG321    CG321   CG3RC1   CG3C54     9   180.000000     4.769760     4
   CG321    CG321   CG3RC1   CG3RC1     9     0.000000     0.627600     3
   CG321    CG321   CG3RC1   NG2R43     9     0.000000     1.213360     3
   CG321    CG321   CG3RC1    NG2S0     9     0.000000     6.359680     3
   CG321    CG321   CG3RC1    NG2S0     9   180.000000     1.589920     4
   CG321    CG321   CG3RC1   OG3C51     9   180.000000    10.041600     2
   CG321    CG321   CG3RC1   OG3C51     9     0.000000     3.054320     3
   CG321    CG321   CG3RC1     HGA1     9     0.000000     0.627600     3
   CG321    CG321    NG1T1    NG1T1     9     0.000000     1.529670     3
   CG321    CG321    NG2D1    CG2D1     9     0.000000     2.552240     1
   CG321    CG321    NG2D1    CG2D1     9   180.000000     2.594080     2
   CG321    CG321    NG2D1    CG2D1     9     0.000000     1.046000     3
   CG321    CG321    NG2D1    CG2D1     9     0.000000     2.510400     4
   CG321    CG321    NG2D1    CG2D1     9     0.000000     1.046000     6
   CG321    CG321    NG2D1   CG2D1O     9     0.000000     2.552240     1
   CG321    CG321    NG2D1   CG2D1O     9   180.000000     2.594080     2
   CG321    CG321    NG2D1   CG2D1O     9     0.000000     1.046000     3
   CG321    CG321    NG2D1   CG2D1O     9     0.000000     2.510400     4
   CG321    CG321    NG2D1   CG2D1O     9     0.000000     1.046000     6
   CG321    CG321    NG2D1   CG2D2O     9     0.000000     2.552240     1
   CG321    CG321    NG2D1   CG2D2O     9   180.000000     2.594080     2
   CG321    CG321    NG2D1   CG2D2O     9     0.000000     1.046000     3
   CG321    CG321    NG2D1   CG2D2O     9     0.000000     2.510400     4
   CG321    CG321    NG2D1   CG2D2O     9     0.000000     1.046000     6
   CG321    CG321    NG2D1   CG2DC1     9     0.000000     2.552240     1
   CG321    CG321    NG2D1   CG2DC1     9   180.000000     2.594080     2
   CG321    CG321    NG2D1   CG2DC1     9     0.000000     1.046000     3
   CG321    CG321    NG2D1   CG2DC1     9     0.000000     2.510400     4
   CG321    CG321    NG2D1   CG2DC1     9     0.000000     1.046000     6
   CG321    CG321    NG2D1   CG2DC2     9     0.000000     2.552240     1
   CG321    CG321    NG2D1   CG2DC2     9   180.000000     2.594080     2
   CG321    CG321    NG2D1   CG2DC2     9     0.000000     1.046000     3
   CG321    CG321    NG2D1   CG2DC2     9     0.000000     2.510400     4
   CG321    CG321    NG2D1   CG2DC2     9     0.000000     1.046000     6
   CG321    CG321    NG2D1    CG2N2     9   180.000000     0.794960     1
   CG321    CG321    NG2D1    CG2N2     9   180.000000     1.422560     2
   CG321    CG321    NG2D1    CG2N2     9   180.000000     2.343040     3
   CG321    CG321    NG2D1    CG2N2     9     0.000000     0.502080     4
   CG321    CG321    NG2D1    CG2N2     9   180.000000     0.502080     6
   CG321    CG321    NG2D1    CG2O1     9     0.000000     2.759348     1
   CG321    CG321    NG2D1    CG2O1     9     0.000000     0.208363     2
   CG321    CG321    NG2D1    CG2O1     9   180.000000     6.755068     3
   CG321    CG321    NG2D1   CG2R64     9   180.000000     0.125520     1
   CG321    CG321    NG2D1   CG2R64     9   180.000000    11.464160     2
   CG321    CG321    NG2D1   CG2R64     9     0.000000     0.083680     3
   CG321    CG321   NG2R43   CG2R53     9     0.000000     5.104480     1
   CG321    CG321   NG2R43   CG2R53     9   180.000000     0.878640     2
   CG321    CG321   NG2R43   CG3RC1     9     0.000000    25.020320     1
   CG321    CG321   NG2R43   CG3RC1     9     0.000000     0.000000     2
   CG321    CG321   NG2R51   CG2R51     9     0.000000     1.631760     1
   CG321    CG321   NG2R51   CG2R51     9     0.000000     1.757280     2
   CG321    CG321   NG2R51   CG2R51     9     0.000000     0.334720     3
   CG321    CG321   NG2R51   CG2R51     9     0.000000     0.251040     4
   CG321    CG321   NG2R51   CG2R53     9     0.000000     1.631760     1
   CG321    CG321   NG2R51   CG2R53     9     0.000000     1.757280     2
   CG321    CG321   NG2R51   CG2R53     9     0.000000     0.334720     3
   CG321    CG321   NG2R51   CG2R53     9     0.000000     0.251040     4
   CG321    CG321   NG2R51   CG2R57     9     0.000000     1.631760     1
   CG321    CG321   NG2R51   CG2R57     9     0.000000     1.757280     2
   CG321    CG321   NG2R51   CG2R57     9     0.000000     0.334720     3
   CG321    CG321   NG2R51   CG2R57     9     0.000000     0.251040     4
   CG321    CG321   NG2R51   NG2R50     9   180.000000     1.631760     1
   CG321    CG321   NG2R51   NG2R50     9     0.000000     1.757280     2
   CG321    CG321   NG2R51   NG2R50     9   180.000000     0.334720     3
   CG321    CG321   NG2R51   NG2R50     9     0.000000     0.251040     4
   CG321    CG321   NG2R53   CG2R53     9     0.000000     0.000000     1
   CG321    CG321   NG2R53   CG3RC1     9     0.000000     0.502080     1
   CG321    CG321   NG2R53   CG3RC1     9     0.000000     4.518720     2
   CG321    CG321   NG2R53   CG3RC1     9     0.000000     1.799120     3
   CG321    CG321   NG2R61   CG2R62     9     0.000000     7.070960     1
   CG321    CG321   NG2R61   CG2R63     9     0.000000     2.092000     2
   CG321    CG321   NG2R61   CG2R64     9     0.000000     2.092000     2
   CG321    CG321    NG2S0    CG2O1     9     0.000000     7.531200     1
   CG321    CG321    NG2S0    CG2O6     9     0.000000     0.000000     3
   CG321    CG321    NG2S0   CG2R61     9     0.000000    14.267440     1
   CG321    CG321    NG2S0   CG2R61     9     0.000000     3.138000     3
   CG321    CG321    NG2S0    CG301     9     0.000000     5.899440     1
   CG321    CG321    NG2S0    CG301     9     0.000000     5.355520     2
   CG321    CG321    NG2S0    CG311     9     0.000000     5.899440     1
   CG321    CG321    NG2S0    CG311     9     0.000000     5.355520     2
   CG321    CG321    NG2S0    CG321     9     0.000000     5.899440     1
   CG321    CG321    NG2S0    CG321     9     0.000000     5.355520     2
   CG321    CG321    NG2S0    CG331     9   180.000000     0.418400     3
   CG321    CG321    NG2S0   CG3C51     9   180.000000     3.765600     1
   CG321    CG321    NG2S0   CG3C51     9   180.000000     2.133840     2
   CG321    CG321    NG2S0   CG3C51     9   180.000000     0.753120     3
   CG321    CG321    NG2S0    OG301     9     0.000000     3.681920     1
   CG321    CG321    NG2S0    OG301     9     0.000000     0.334720     4
   CG321    CG321    NG2S0    OG311     9     0.000000     2.502032     1
   CG321    CG321    NG2S0     CN7B     9     0.000000     0.418400     1
   CG321    CG321    NG2S1    CG2O1     9     0.000000     7.531200     1
   CG321    CG321    NG2S1    CG2O3     9     0.000000     7.531200     1
   CG321    CG321    NG2S1    CG2O6     9   180.000000     1.464400     1
   CG321    CG321    NG2S1    CG2O6     9     0.000000     3.138000     2
   CG321    CG321    NG2S1    CG2O6     9     0.000000     0.627600     4
   CG321    CG321    NG2S1     HGP1     9     0.000000     0.000000     1
   CG321    CG321    NG2S3      PG1     9   180.000000     6.445870     1
   CG321    CG321    NG2S3      PG1     9     0.000000     0.384510     2
   CG321    CG321    NG2S3      PG1     9     0.000000     1.777782     3
   CG321    CG321    NG2S3     HGP1     9     0.000000     3.100344     1
   CG321    CG321    NG2S3     HGP1     9     0.000000     1.343064     2
   CG321    CG321    NG2S3     HGP1     9   180.000000     0.983240     3
   CG321    CG321    NG301    CG1N1     9   180.000000     2.050160     1
   CG321    CG321    NG301    CG1N1     9   180.000000     0.962320     2
   CG321    CG321    NG301    CG1N1     9   180.000000     0.502080     3
   CG321    CG321    NG301    CG1N1     9   180.000000     1.589920     4
   CG321    CG321    NG301   CG2D1O     9   180.000000     1.380720     1
   CG321    CG321    NG301   CG2D1O     9   180.000000     1.087840     2
   CG321    CG321    NG301   CG2D1O     9     0.000000     1.673600     3
   CG321    CG321    NG301   CG2D1O     9   180.000000     1.213360     6
   CG321    CG321    NG301   CG2D2O     9   180.000000     1.380720     1
   CG321    CG321    NG301   CG2D2O     9   180.000000     1.087840     2
   CG321    CG321    NG301   CG2D2O     9     0.000000     1.673600     3
   CG321    CG321    NG301   CG2D2O     9   180.000000     1.213360     6
   CG321    CG321    NG301   CG2R51     9   180.000000     1.840960     1
   CG321    CG321    NG301   CG2R51     9     0.000000     0.125520     2
   CG321    CG321    NG301   CG2R51     9     0.000000     0.041840     3
   CG321    CG321    NG301   CG2R53     9   180.000000     1.840960     1
   CG321    CG321    NG301   CG2R53     9     0.000000     0.125520     2
   CG321    CG321    NG301   CG2R53     9     0.000000     0.041840     3
   CG321    CG321    NG301   CG2R61     9   180.000000     1.840960     1
   CG321    CG321    NG301   CG2R61     9     0.000000     0.125520     2
   CG321    CG321    NG301   CG2R61     9     0.000000     0.041840     3
   CG321    CG321    NG301   CG2R62     9   180.000000     1.840960     1
   CG321    CG321    NG301   CG2R62     9     0.000000     0.125520     2
   CG321    CG321    NG301   CG2R62     9     0.000000     0.041840     3
   CG321    CG321    NG301   CG2R64     9     0.000000     0.251040     2
   CG321    CG321    NG301   CG2R64     9     0.000000     1.966480     3
   CG321    CG321    NG301    CG311     9     0.000000     0.209200     1
   CG321    CG321    NG301    CG311     9     0.000000     4.016640     2
   CG321    CG321    NG301    CG311     9   180.000000     0.167360     3
   CG321    CG321    NG301    CG321     9   180.000000     5.941280     1
   CG321    CG321    NG301    CG321     9     0.000000     3.430880     2
   CG321    CG321    NG301    CG321     9     0.000000     4.267680     3
   CG321    CG321    NG301    CG324     9   180.000000     5.941280     1
   CG321    CG321    NG301    CG324     9     0.000000     3.430880     2
   CG321    CG321    NG301    CG324     9     0.000000     4.267680     3
   CG321    CG321    NG301    CG331     9   180.000000     1.631760     1
   CG321    CG321    NG301    CG331     9     0.000000     0.711280     2
   CG321    CG321    NG301    CG331     9     0.000000     0.251040     3
   CG321    CG321    NG301    CG331     9   180.000000     0.836800     6
   CG321    CG321    NG301   CG3C50     9   180.000000     0.794960     1
   CG321    CG321    NG301   CG3C50     9     0.000000    11.547840     2
   CG321    CG321    NG301   CG3C50     9     0.000000     6.317840     3
   CG321    CG321    NG301   CG3C51     9     0.000000     1.338880     1
   CG321    CG321    NG301   CG3C51     9     0.000000     1.548080     2
   CG321    CG321    NG301   CG3C51     9   180.000000     6.652560     3
   CG321    CG321    NG301   CG3C51     9     0.000000     0.251040     4
   CG321    CG321    NG301   CG3C51     9   180.000000     1.380720     6
   CG321    CG321    NG301    OG301     9   180.000000     0.878640     1
   CG321    CG321    NG301    OG301     9     0.000000     1.297040     2
   CG321    CG321    NG301    OG301     9     0.000000    14.016400     3
   CG321    CG321    NG301    OG301     9   180.000000     0.418400     4
   CG321    CG321    NG301    SG3O2     9     0.000000     0.418400     1
   CG321    CG321    NG301    SG3O2     9     0.000000     2.928800     2
   CG321    CG321    NG301    SG3O2     9     0.000000     0.418400     3
   CG321    CG321    NG311   CG2D1O     9     0.000000     0.000000     1
   CG321    CG321    NG311   CG2D1O     9     0.000000     9.246640     3
   CG321    CG321    NG311   CG2D2O     9     0.000000     0.000000     1
   CG321    CG321    NG311   CG2D2O     9     0.000000     9.246640     3
   CG321    CG321    NG311    CG2N2     9   180.000000     0.418400     1
   CG321    CG321    NG311    CG2N2     9   180.000000     1.548080     3
   CG321    CG321    NG311    CG2N2     9   180.000000     0.543920     4
   CG321    CG321    NG311   CG2R61     9   180.000000     3.347200     1
   CG321    CG321    NG311   CG2R61     9     0.000000     4.602400     3
   CG321    CG321    NG311   CG2R64     9   180.000000     3.347200     1
   CG321    CG321    NG311   CG2R64     9     0.000000     4.602400     3
   CG321    CG321    NG311    CG301     9   180.000000     5.941280     1
   CG321    CG321    NG311    CG301     9     0.000000     3.430880     2
   CG321    CG321    NG311    CG301     9     0.000000     4.267680     3
   CG321    CG321    NG311    CG311     9   180.000000     5.941280     1
   CG321    CG321    NG311    CG311     9     0.000000     3.430880     2
   CG321    CG321    NG311    CG311     9     0.000000     4.267680     3
   CG321    CG321    NG311    CG314     9   180.000000     5.941280     1
   CG321    CG321    NG311    CG314     9     0.000000     3.430880     2
   CG321    CG321    NG311    CG314     9     0.000000     4.267680     3
   CG321    CG321    NG311    CG321     9   180.000000     5.941280     1
   CG321    CG321    NG311    CG321     9     0.000000     3.430880     2
   CG321    CG321    NG311    CG321     9     0.000000     4.267680     3
   CG321    CG321    NG311   CG3C41     9     0.000000     5.773920     1
   CG321    CG321    NG311   CG3C41     9     0.000000     1.506240     2
   CG321    CG321    NG311   CG3C41     9   180.000000    10.041600     3
   CG321    CG321    NG311   CG3C50     9   180.000000     3.891120     1
   CG321    CG321    NG311   CG3C50     9   180.000000    16.192080     2
   CG321    CG321    NG311   CG3C50     9   180.000000     1.840960     3
   CG321    CG321    NG311   CG3C51     9   180.000000     4.225840     1
   CG321    CG321    NG311   CG3C51     9     0.000000     5.648400     2
   CG321    CG321    NG311   CG3C51     9   180.000000     0.962320     3
   CG321    CG321    NG311   CG3C51     9   180.000000     4.184000     6
   CG321    CG321    NG311   CG3RC1     9   180.000000    12.719360     1
   CG321    CG321    NG311   CG3RC1     9   180.000000    11.464160     2
   CG321    CG321    NG311   CG3RC1     9     0.000000     1.297040     3
   CG321    CG321    NG311    SG3O2     9     0.000000     0.418400     1
   CG321    CG321    NG311    SG3O2     9     0.000000     2.928800     2
   CG321    CG321    NG311    SG3O2     9     0.000000     0.418400     3
   CG321    CG321    NG311     HGP1     9     0.000000     0.418400     3
   CG321    CG321    NG311   HGPAM1     9     0.000000     1.255200     3
   CG321    CG321    NG321   HGPAM2     9     0.000000     3.347200     3
   CG321    CG321   NG3C51   CG2RC0     9     0.000000     4.476880     1
   CG321    CG321   NG3C51   CG2RC0     9   180.000000     0.125520     2
   CG321    CG321   NG3C51   CG2RC0     9     0.000000     6.568880     3
   CG321    CG321   NG3C51   CG3C52     9   180.000000     0.962320     1
   CG321    CG321   NG3C51   CG3C52     9     0.000000     6.485200     2
   CG321    CG321    OG301   CG2D1O     9     0.000000     1.046000     1
   CG321    CG321    OG301   CG2D1O     9     0.000000     4.309520     2
   CG321    CG321    OG301   CG2D1O     9     0.000000     0.711280     3
   CG321    CG321    OG301   CG2D2O     9     0.000000     1.046000     1
   CG321    CG321    OG301   CG2D2O     9     0.000000     4.309520     2
   CG321    CG321    OG301   CG2D2O     9     0.000000     0.711280     3
   CG321    CG321    OG301   CG2R61     9     0.000000     1.004160     1
   CG321    CG321    OG301   CG2R61     9     0.000000     1.213360     2
   CG321    CG321    OG301   CG2R61     9     0.000000     0.083680     3
   CG321    CG321    OG301    CG301     9     0.000000     2.384880     1
   CG321    CG321    OG301    CG301     9     0.000000     1.213360     2
   CG321    CG321    OG301    CG301     9     0.000000     1.799120     3
   CG321    CG321    OG301    CG311     9     0.000000     2.384880     1
   CG321    CG321    OG301    CG311     9     0.000000     1.213360     2
   CG321    CG321    OG301    CG311     9     0.000000     1.799120     3
   CG321    CG321    OG301    CG321     9     0.000000     2.384880     1
   CG321    CG321    OG301    CG321     9     0.000000     1.213360     2
   CG321    CG321    OG301    CG321     9     0.000000     1.799120     3
   CG321    CG321    OG301    CG331     9     0.000000     2.384880     1
   CG321    CG321    OG301    CG331     9     0.000000     1.213360     2
   CG321    CG321    OG301    CG331     9     0.000000     1.799120     3
   CG321    CG321    OG301    NG2D1     9   180.000000     1.559377     1
   CG321    CG321    OG301    NG2D1     9     0.000000     3.033400     2
   CG321    CG321    OG301    NG2D1     9     0.000000     0.094977     3
   CG321    CG321    OG301    NG2P1     9     0.000000     0.707096     1
   CG321    CG321    OG301    NG2P1     9     0.000000     1.129680     2
   CG321    CG321    OG301    NG2P1     9     0.000000     3.029216     3
   CG321    CG321    OG301    NG2S0     9     0.000000     2.468560     1
   CG321    CG321    OG301    NG2S0     9     0.000000     9.037440     2
   CG321    CG321    OG301    NG2S0     9     0.000000     6.317840     3
   CG321    CG321    OG301    NG2S0     9     0.000000     9.832400     4
   CG321    CG321    OG301    NG321     9   180.000000     1.758535     1
   CG321    CG321    OG301    NG321     9   180.000000     3.739241     3
   CG321    CG321    OG302    CG2O2     9     0.000000     0.000000     3
   CG321    CG321    OG303      PG1     9   180.000000     2.510400     1
   CG321    CG321    OG303      PG1     9     0.000000     2.719600     2
   CG321    CG321    OG303      PG1     9     0.000000     0.209200     3
   CG321    CG321    OG303    SG3O1     9     0.000000     0.000000     3
   CG321    CG321    OG311     HGP1     9     0.000000     4.727920     1
   CG321    CG321    OG311     HGP1     9     0.000000     0.585760     2
   CG321    CG321    OG311     HGP1     9     0.000000     1.004160     3
   CG321    CG321   OG3C61    CG301     9   180.000000     2.217520     1
   CG321    CG321   OG3C61    CG301     9     0.000000     2.845120     2
   CG321    CG321   OG3C61    CG301     9   180.000000     0.878640     3
   CG321    CG321   OG3C61    CG301     9     0.000000     0.627600     4
   CG321    CG321   OG3C61    CG311     9   180.000000     2.217520     1
   CG321    CG321   OG3C61    CG311     9     0.000000     2.845120     2
   CG321    CG321   OG3C61    CG311     9   180.000000     0.878640     3
   CG321    CG321   OG3C61    CG311     9     0.000000     0.627600     4
   CG321    CG321   OG3C61    CG321     9   180.000000     2.217520     1
   CG321    CG321   OG3C61    CG321     9     0.000000     2.845120     2
   CG321    CG321   OG3C61    CG321     9   180.000000     0.878640     3
   CG321    CG321   OG3C61    CG321     9     0.000000     0.627600     4
   CG321    CG321   OG3C61   CG3C50     9   180.000000     2.301200     1
   CG321    CG321   OG3C61   CG3C50     9     0.000000     0.125520     2
   CG321    CG321   OG3C61   CG3C50     9   180.000000     0.000000     3
   CG321    CG321   OG3C61   CG3C50     9   180.000000     1.171520     4
   CG321    CG321   OG3C61   CG3RC1     9   180.000000     5.648400     1
   CG321    CG321   OG3C61   CG3RC1     9     0.000000     0.251040     2
   CG321    CG321   OG3C61   CG3RC1     9     0.000000     0.753120     3
   CG321    CG321   OG3C61   CG3RC1     9   180.000000     0.334720     4
   CG321    CG321   OG3R60   CG2D1O     9   180.000000     0.794960     2
   CG321    CG321   OG3R60   CG2D1O     9   180.000000     0.627600     3
   CG321    CG321   OG3R60   CG2D2O     9   180.000000     0.794960     2
   CG321    CG321   OG3R60   CG2D2O     9   180.000000     0.627600     3
   CG321    CG321   OG3R60   CG2R51     9   180.000000     0.000000     1
   CG321    CG321   OG3R60   CG2R51     9     0.000000     5.230000     2
   CG321    CG321   OG3R60   CG2R51     9     0.000000     0.920480     3
   CG321    CG321   OG3R60   CG2R62     9   180.000000     0.000000     1
   CG321    CG321   OG3R60   CG2R62     9   180.000000     0.041840     2
   CG321    CG321   OG3R60   CG2R62     9   180.000000     0.920480     3
   CG321    CG321    SG301    SG301     9     0.000000     1.297040     3
   CG321    CG321    SG311    CG1N1     9   180.000000     2.197437     1
   CG321    CG321    SG311    CG1N1     9   180.000000     0.041422     3
   CG321    CG321    SG311    CG2N2     9   180.000000     1.004160     1
   CG321    CG321    SG311    CG2N2     9     0.000000     1.548080     3
   CG321    CG321    SG311    CG2O2     9   180.000000     2.259360     1
   CG321    CG321    SG311    CG2O2     9     0.000000     0.209200     3
   CG321    CG321    SG311    CG2O6     9   180.000000     0.502080     1
   CG321    CG321    SG311    CG2O6     9     0.000000     3.221680     2
   CG321    CG321    SG311    CG2O6     9   180.000000     3.891120     3
   CG321    CG321    SG311    CG301     9   180.000000     1.004160     1
   CG321    CG321    SG311    CG301     9     0.000000     1.548080     3
   CG321    CG321    SG311    CG311     9   180.000000     1.004160     1
   CG321    CG321    SG311    CG311     9     0.000000     1.548080     3
   CG321    CG321    SG311    CG312     9   180.000000     3.254734     1
   CG321    CG321    SG311    CG312     9     0.000000     1.280304     3
   CG321    CG321    SG311    CG321     9   180.000000     1.004160     1
   CG321    CG321    SG311    CG321     9     0.000000     1.548080     3
   CG321    CG321    SG311    CG331     9   180.000000     1.004160     1
   CG321    CG321    SG311    CG331     9     0.000000     1.548080     3
   CG321    CG321    SG311   CG3C41     9   180.000000     0.753120     1
   CG321    CG321    SG311   CG3C41     9     0.000000     1.046000     2
   CG321    CG321    SG311   CG3C41     9     0.000000     0.627600     3
   CG321    CG321    SG311   CG3RC1     9   180.000000     0.753120     1
   CG321    CG321    SG311   CG3RC1     9     0.000000     1.046000     2
   CG321    CG321    SG311   CG3RC1     9     0.000000     0.627600     3
   CG321    CG321    SG311     HGP3     9     0.000000     1.004160     1
   CG321    CG321    SG311     HGP3     9     0.000000     0.627600     2
   CG321    CG321    SG311     HGP3     9     0.000000     1.129680     3
   CG321    CG321    SG3O1    OG2P1     9     0.000000     0.962320     3
   CG321    CG321    SG3O2   CG2R51     9   180.000000     6.778080     3
   CG321    CG321    SG3O2   CG2R51     9     0.000000     2.092000     4
   CG321    CG321    SG3O2   CG2R61     9   180.000000     5.606560     2
   CG321    CG321    SG3O2   CG2R61     9     0.000000     6.234160     3
   CG321    CG321    SG3O2    CG311     9     0.000000     3.765600     1
   CG321    CG321    SG3O2    CG311     9     0.000000     1.464400     2
   CG321    CG321    SG3O2    CG311     9     0.000000     0.502080     3
   CG321    CG321    SG3O2    CG321     9     0.000000     3.765600     1
   CG321    CG321    SG3O2    CG321     9     0.000000     1.464400     2
   CG321    CG321    SG3O2    CG321     9     0.000000     0.502080     3
   CG321    CG321    SG3O2    CG331     9     0.000000     3.765600     1
   CG321    CG321    SG3O2    CG331     9     0.000000     1.464400     2
   CG321    CG321    SG3O2    CG331     9     0.000000     0.523000     3
   CG321    CG321    SG3O2   CG3RC1     9   180.000000    12.300960     1
   CG321    CG321    SG3O2   CG3RC1     9   180.000000     1.673600     2
   CG321    CG321    SG3O2   CG3RC1     9     0.000000     3.054320     3
   CG321    CG321    SG3O2    NG301     9     0.000000     0.418400     1
   CG321    CG321    SG3O2    NG301     9     0.000000     1.673600     2
   CG321    CG321    SG3O2    NG301     9     0.000000     1.506240     3
   CG321    CG321    SG3O2    OG2P1     9     0.000000     0.753120     3
   CG321    CG321    SG3O3    CG311     9     0.000000     0.167360     1
   CG321    CG321    SG3O3    CG311     9     0.000000     1.255200     3
   CG321    CG321    SG3O3    CG321     9   180.000000    22.258880     1
   CG321    CG321    SG3O3    CG321     9     0.000000    11.254960     3
   CG321    CG321    SG3O3    CG331     9   180.000000     0.753120     1
   CG321    CG321    SG3O3    CG331     9     0.000000     2.384880     3
   CG321    CG321    SG3O3    OG2P1     9   180.000000     6.694400     1
   CG321    CG321    SG3O3    OG2P1     9   180.000000     1.004160     2
   CG321    CG321    SG3O3    OG2P1     9   180.000000     0.125520     3
   CG321    CG321      CT1        C     9     0.000000     0.836800     3
   CG321    CG321      CT1       CC     9     0.000000     0.836800     3
   CG321    CG321     CTD1        C     9     0.000000     0.836800     3
   CG321    CG322    CG331     HGA3     9     0.000000     0.753120     3
   CG321    CG324    NG2O1    OG2N1     9   180.000000     0.351456     2
   CG321    CG324    NG2O1    OG2N1     9     0.000000     0.138072     4
   CG321    CG324    NG2O1    OG2N1     9     0.000000     0.101253     6
   CG321    CG324    NG2P1    CG2N1     9   180.000000     0.000000     6
   CG321    CG324    NG2P1    CG2N2     9   180.000000     0.000000     6
   CG321    CG324    NG2P1   CG2R62     9     0.000000     0.418400     3
   CG321    CG324    NG2P1   CG2R64     9     0.000000     0.418400     3
   CG321    CG324    NG2P1    CG324     9   180.000000     9.497680     3
   CG321    CG324    NG2P1    CG334     9   180.000000     8.326160     2
   CG321    CG324    NG2P1    CG334     9   180.000000     2.175680     3
   CG321    CG324    NG2P1     HGP2     9   180.000000     0.000000     6
   CG321    CG324   NG2R52   CG2R51     9     0.000000     0.209200     2
   CG321    CG324   NG2R52   CG2R51     9   180.000000     2.343040     3
   CG321    CG324   NG2R52   CG2R53     9     0.000000     6.024960     2
   CG321    CG324   NG2R52   CG2R53     9     0.000000     1.380720     3
   CG321    CG324   NG2R52   CG2R57     9     0.000000     1.757280     3
   CG321    CG324   NG2R61   CG2R62     9     0.000000     7.070960     1
   CG321    CG324    NG3P0   CG2R53     9   180.000000     3.096160     3
   CG321    CG324    NG3P0   CG2R53     9   180.000000    10.752880     4
   CG321    CG324    NG3P0    CG314     9     0.000000     1.087840     3
   CG321    CG324    NG3P0    CG324     9     0.000000     1.087840     3
   CG321    CG324    NG3P0    CG334     9     0.000000     1.087840     3
   CG321    CG324    NG3P0   CG3C53     9     0.000000     1.087840     3
   CG321    CG324    NG3P0    OG312     9     0.000000     0.627600     3
   CG321    CG324    NG3P1   CG2D1O     9   180.000000     0.083680     2
   CG321    CG324    NG3P1   CG2D1O     9   180.000000     2.259360     3
   CG321    CG324    NG3P1   CG2D2O     9   180.000000     0.083680     2
   CG321    CG324    NG3P1   CG2D2O     9   180.000000     2.259360     3
   CG321    CG324    NG3P1   CG2R61     9     0.000000     0.251040     2
   CG321    CG324    NG3P1   CG2R61     9     0.000000     1.297040     3
   CG321    CG324    NG3P1    CG301     9     0.000000     0.000000     3
   CG321    CG324    NG3P1    CG314     9     0.000000     0.418400     3
   CG321    CG324    NG3P1    CG324     9     0.000000     0.418400     3
   CG321    CG324    NG3P1    CG334     9     0.000000     0.418400     3
   CG321    CG324    NG3P1   CG3C31     9     0.000000     6.945440     3
   CG321    CG324    NG3P1   CG3C41     9     0.000000    51.002960     2
   CG321    CG324    NG3P1   CG3C41     9   180.000000    32.802560     3
   CG321    CG324    NG3P1   CG3C50     9     0.000000     0.460240     3
   CG321    CG324    NG3P1   CG3C53     9     0.000000     0.167360     3
   CG321    CG324    NG3P1   CG3C53     9     0.000000     0.000000     4
   CG321    CG324    NG3P1     HGP2     9     0.000000     0.418400     3
   CG321    CG324    NG3P2   CG2D1O     9     0.000000     0.167360     1
   CG321    CG324    NG3P2   CG2D1O     9     0.000000     2.510400     2
   CG321    CG324    NG3P2   CG2D1O     9     0.000000     1.966480     3
   CG321    CG324    NG3P2   CG2D2O     9     0.000000     0.167360     1
   CG321    CG324    NG3P2   CG2D2O     9     0.000000     2.510400     2
   CG321    CG324    NG3P2   CG2D2O     9     0.000000     1.966480     3
   CG321    CG324    NG3P2    CG314     9     0.000000     1.673600     1
   CG321    CG324    NG3P2    CG314     9     0.000000     1.046000     2
   CG321    CG324    NG3P2    CG314     9     0.000000     2.510400     3
   CG321    CG324    NG3P2    CG324     9     0.000000     1.673600     1
   CG321    CG324    NG3P2    CG324     9     0.000000     1.046000     2
   CG321    CG324    NG3P2    CG324     9     0.000000     2.510400     3
   CG321    CG324    NG3P2    CG334     9     0.000000     1.673600     1
   CG321    CG324    NG3P2    CG334     9     0.000000     1.046000     2
   CG321    CG324    NG3P2    CG334     9     0.000000     2.510400     3
   CG321    CG324    NG3P2   CG3C53     9     0.000000     1.673600     1
   CG321    CG324    NG3P2   CG3C53     9     0.000000     1.046000     2
   CG321    CG324    NG3P2   CG3C53     9     0.000000     2.510400     3
   CG321    CG324    NG3P2     HGP2     9     0.000000     0.418400     3
   CG321    CG324    NG3P3     HGP2     9     0.000000     0.418400     3
   CG321   CG3C31   CG3C31    CG321     9   180.000000    21.505760     2
   CG321   CG3C31   CG3C31    CG321     9   180.000000     4.853440     6
   CG321   CG3C31   CG3C31    CG331     9   180.000000     7.614880     2
   CG321   CG3C31   CG3C31    CG331     9   180.000000     0.376560     6
   CG321   CG3C31   CG3C31   CG3C31     9   180.000000     6.276000     2
   CG321   CG3C31   CG3C31   CG3C31     9     0.000000     1.255200     3
   CG321   CG3C31   CG3C31   CG3C31     9     0.000000     2.552240     6
   CG321   CG3C31   CG3C31    NG3P2     9   180.000000     2.259360     2
   CG321   CG3C31   CG3C31    NG3P2     9   180.000000     2.008320     6
   CG321   CG3C31   CG3C31    NG3P3     9     0.000000     1.087840     3
   CG321   CG3C31   CG3C31    NG3P3     9   180.000000     1.297040     6
   CG321   CG3C31   CG3C31    OG301     9     0.000000     0.627600     3
   CG321   CG3C31   CG3C31    OG301     9     0.000000     2.008320     6
   CG321   CG3C31   CG3C31   OG3C31     9   180.000000     0.460240     6
   CG321   CG3C31   CG3C31     HGA1     9   180.000000     0.836800     5
   CG321   CG3C31   CG3C31     HGA2     9   180.000000     0.836800     5
   CG321   CG3C31    NG3P1    CG324     9     0.000000     3.472720     1
   CG321   CG3C31    NG3P1    CG324     9   180.000000     1.338880     3
   CG321   CG3C31    NG3P1    CG334     9     0.000000     1.589920     1
   CG321   CG3C31    NG3P1    CG334     9     0.000000     0.753120     3
   CG321   CG3C31    NG3P1    CG334     9     0.000000     1.171520     4
   CG321   CG3C31    NG3P1     HGP2     9     0.000000     0.209200     3
   CG321   CG3C31    NG3P2   CG3C31     9     0.000000     0.418400     3
   CG321   CG3C31    NG3P2     HGP2     9     0.000000     0.376560     3
   CG321   CG3C31   OG3C31   CG3C31     9     0.000000     2.677760     5
   CG321   CG3C31   OG3C31   CG3C31     9   180.000000     3.389040     6
   CG321   CG3C31    SG3O2    NG311     9   180.000000     0.000000     1
   CG321   CG3C31    SG3O2    NG311     9   180.000000     0.000000     2
   CG321   CG3C31    SG3O2    NG311     9   180.000000     0.000000     3
   CG321   CG3C31    SG3O2    OG2P1     9     0.000000     1.422560     3
   CG321   CG3C41   CG3C41    CG321     9   180.000000     3.849280     2
   CG321   CG3C41   CG3C41    CG321     9     0.000000     3.221680     3
   CG321   CG3C41   CG3C41   CG3C41     9     0.000000     0.711280     3
   CG321   CG3C41   CG3C41   CG3C41     9   180.000000     1.087840     4
   CG321   CG3C41   CG3C41   NG2R43     9     0.000000     5.020800     2
   CG321   CG3C41   CG3C41   NG2R43     9     0.000000    12.217280     3
   CG321   CG3C41   CG3C41    NG311     9     0.000000     2.217520     2
   CG321   CG3C41   CG3C41    NG311     9   180.000000     2.928800     3
   CG321   CG3C41   CG3C41    SG3O2     9     0.000000     5.564720     3
   CG321   CG3C41   CG3C41    SG3O2     9   180.000000     1.129680     6
   CG321   CG3C41   CG3C41     HGA1     9     0.000000     0.000000     3
   CG321   CG3C41   CG3C41     HGA2     9     0.000000     0.000000     3
   CG321   CG3C41   NG2R43   CG2R53     9     0.000000    10.041600     2
   CG321   CG3C41   NG2R43   CG2R53     9     0.000000     3.138000     3
   CG321   CG3C41   NG2R43     HGP1     9     0.000000     2.761440     2
   CG321   CG3C41   NG2R43     HGP1     9     0.000000     0.627600     3
   CG321   CG3C41    NG311    CG321     9     0.000000     3.138000     3
   CG321   CG3C41    NG311   HGPAM1     9   180.000000     1.924640     2
   CG321   CG3C41    NG311   HGPAM1     9     0.000000     5.230000     3
   CG321   CG3C41    OG301   CG2R61     9   180.000000     0.167360     1
   CG321   CG3C41    OG301   CG2R61     9   180.000000     0.251040     2
   CG321   CG3C41    OG301   CG2R61     9   180.000000     1.129680     3
   CG321   CG3C41    OG301   CG2R61     9     0.000000     0.794960     6
   CG321   CG3C41   OG3C51   CG3C41     9     0.000000     1.924640     3
   CG321   CG3C41   OG3C61    CG311     9     0.000000     0.209200     1
   CG321   CG3C41   OG3C61    CG311     9     0.000000     1.046000     3
   CG321   CG3C41   OG3C61    CG311     9     0.000000     1.087840     4
   CG321   CG3C41   OG3R60   CG2R61     9   180.000000     0.083680     1
   CG321   CG3C41   OG3R60   CG2R61     9     0.000000     1.757280     2
   CG321   CG3C41   OG3R60   CG2R61     9     0.000000     0.711280     3
   CG321   CG3C41   OG3R60   CG2R61     9   180.000000     0.251040     4
   CG321   CG3C41    SG311    CG321     9     0.000000     0.334720     1
   CG321   CG3C41    SG311    CG321     9     0.000000     7.949600     3
   CG321   CG3C41    SG311    CG321     9     0.000000     7.949600     6
   CG321   CG3C50   CG3C51   CG2R53     9   180.000000     0.669440     3
   CG321   CG3C50   CG3C51   CG2R53     9     0.000000     0.711280     4
   CG321   CG3C50   CG3C51   CG2R53     9     0.000000     0.292880     6
   CG321   CG3C50   CG3C51    CG331     9     0.000000     2.803280     3
   CG321   CG3C50   CG3C51    CG331     9   180.000000     0.083680     6
   CG321   CG3C50   CG3C51   CG3C51     9     0.000000     0.794960     3
   CG321   CG3C50   CG3C51    OG311     9     0.000000     0.585760     3
   CG321   CG3C50   CG3C51     HGA1     9     0.000000     0.794960     3
   CG321   CG3C50   CG3C52   CG2RC0     9     0.000000     3.096160     3
   CG321   CG3C50   CG3C52   CG2RC0     9     0.000000     0.627600     4
   CG321   CG3C50   CG3C52   CG2RC0     9   180.000000     1.046000     6
   CG321   CG3C50   CG3C52   CG3C52     9     0.000000     0.794960     3
   CG321   CG3C50   CG3C52   NG2R53     9     0.000000     1.213360     2
   CG321   CG3C50   CG3C52   NG2R53     9   180.000000     0.209200     6
   CG321   CG3C50   CG3C52   NG3C51     9     0.000000     0.000000     3
   CG321   CG3C50   CG3C52   OG3C51     9     0.000000     4.937120     3
   CG321   CG3C50   CG3C52   OG3C51     9     0.000000     4.351360     6
   CG321   CG3C50   CG3C52     HGA2     9     0.000000     0.000000     3
   CG321   CG3C50   CG3C54   NG2R52     9     0.000000    14.183760     2
   CG321   CG3C50   CG3C54   NG2R52     9     0.000000     0.460240     6
   CG321   CG3C50   CG3C54     HGA2     9     0.000000     0.794960     3
   CG321   CG3C50   NG2R52   CG2R53     9     0.000000     0.251040     3
   CG321   CG3C50   NG2R52    CG334     9     0.000000     2.175680     3
   CG321   CG3C50   NG2R53   CG2R53     9     0.000000     7.740400     3
   CG321   CG3C50   NG2R53     HGP1     9     0.000000     3.263520     3
   CG321   CG3C50   NG2R53     HGP1     9     0.000000     0.627600     6
   CG321   CG3C50    NG301    CG321     9     0.000000    13.598000     1
   CG321   CG3C50    NG301    CG321     9     0.000000    21.254720     3
   CG321   CG3C50    NG301    CG321     9   180.000000     2.175680     6
   CG321   CG3C50    NG321   HGPAM2     9     0.000000     6.527040     3
   CG321   CG3C50   NG3C51   CG2R64     9     0.000000     1.213360     3
   CG321   CG3C50   NG3C51   CG2RC0     9   180.000000     0.125520     3
   CG321   CG3C50   NG3C51   CG2RC0     9   180.000000     0.000000     6
   CG321   CG3C50   NG3C51    CG331     9   180.000000     1.171520     3
   CG321   CG3C50   NG3C51   CG3C52     9     0.000000    13.054080     3
   CG321   CG3C50   NG3C51     HGP1     9   180.000000     2.217520     1
   CG321   CG3C50   NG3C51     HGP1     9     0.000000     0.376560     3
   CG321   CG3C50   NG3C51     HGP1     9     0.000000     0.585760     6
   CG321   CG3C50    NG3P1    CG324     9     0.000000     1.087840     1
   CG321   CG3C50    NG3P1    CG324     9     0.000000     0.167360     3
   CG321   CG3C50    NG3P1     HGP2     9     0.000000     1.380720     3
   CG321   CG3C50    NG3P2    CG314     9   180.000000     3.347200     1
   CG321   CG3C50    NG3P2    CG314     9   180.000000     0.794960     3
   CG321   CG3C50    NG3P2    CG314     9     0.000000     1.757280     4
   CG321   CG3C50    NG3P2     HGP2     9   180.000000     2.133840     3
   CG321   CG3C50    NG3P2     HGP2     9   180.000000     2.594080     6
   CG321   CG3C50    NG3P3     HGP2     9     0.000000     2.050160     3
   CG321   CG3C50    OG311     HGP1     9     0.000000     5.020800     1
   CG321   CG3C50    OG311     HGP1     9   180.000000     0.920480     2
   CG321   CG3C50    OG311     HGP1     9     0.000000     5.690240     3
   CG321   CG3C50    OG311     HGP1     9     0.000000     1.338880     6
   CG321   CG3C50   OG3C51   CG2RC0     9   180.000000     1.422560     3
   CG321   CG3C50   OG3C51   CG2RC0     9   180.000000     0.460240     4
   CG321   CG3C50   OG3C51   CG3C51     9     0.000000     1.255200     3
   CG321   CG3C50   OG3C51   NG2R50     9   180.000000     1.004160     3
   CG321   CG3C50   OG3C61    CG321     9     0.000000     0.000000     1
   CG321   CG3C50   OG3C61    CG321     9     0.000000     0.920480     3
   CG321   CG3C50   OG3R60   CG2R61     9   180.000000     0.167360     1
   CG321   CG3C50   OG3R60   CG2R61     9     0.000000     2.886960     2
   CG321   CG3C50   OG3R60   CG2R61     9     0.000000     6.987280     3
   CG321   CG3C50    SG311   CG3C52     9     0.000000     0.292880     1
   CG321   CG3C50    SG311   CG3C52     9   180.000000     2.301200     3
   CG321   CG3C50    SG311   CG3C52     9     0.000000     6.443360     6
   CG321   CG3C51   CG3C51    CG321     9   180.000000     0.292880     2
   CG321   CG3C51   CG3C51    CG321     9     0.000000     1.840960     3
   CG321   CG3C51   CG3C51   CG3C51     9     0.000000     0.794960     3
   CG321   CG3C51   CG3C51   CG3C52     9     0.000000     0.794960     3
   CG321   CG3C51   CG3C51    NG2S3     9   180.000000     2.092000     2
   CG321   CG3C51   CG3C51    NG321     9   180.000000     1.255200     3
   CG321   CG3C51   CG3C51    OG303     9   180.000000     3.347200     3
   CG321   CG3C51   CG3C51    OG303     9     0.000000     0.836800     4
   CG321   CG3C51   CG3C51    OG311     9     0.000000     0.585760     3
   CG321   CG3C51   CG3C51   OG3C51     9     0.000000     1.422560     3
   CG321   CG3C51   CG3C51   OG3C51     9     0.000000     1.129680     4
   CG321   CG3C51   CG3C51     FGA1     9   180.000000     0.209200     3
   CG321   CG3C51   CG3C51     FGA1     9   180.000000     2.175680     4
   CG321   CG3C51   CG3C51     FGA1     9   180.000000     3.765600     6
   CG321   CG3C51   CG3C51     HGA1     9     0.000000     0.794960     3
   CG321   CG3C51   CG3C51     HGA6     9     0.000000     0.794960     3
   CG321   CG3C51   CG3C52   CG2R53     9     0.000000     1.757280     3
   CG321   CG3C51   CG3C52   CG2R53     9   180.000000     2.468560     4
   CG321   CG3C51   CG3C52   CG2R53     9   180.000000     0.962320     6
   CG321   CG3C51   CG3C52   CG3C50     9     0.000000     0.794960     3
   CG321   CG3C51   CG3C52   CG3C52     9     0.000000     0.794960     3
   CG321   CG3C51   CG3C52   NG3C51     9     0.000000     0.000000     3
   CG321   CG3C51   CG3C52   OG3C51     9     0.000000     0.251040     2
   CG321   CG3C51   CG3C52   OG3C51     9   180.000000     4.267680     3
   CG321   CG3C51   CG3C52     HGA2     9     0.000000     0.794960     3
   CG321   CG3C51   CG3RC1   CG3C31     9   180.000000     9.204800     2
   CG321   CG3C51   CG3RC1   CG3C31     9     0.000000    16.736000     3
   CG321   CG3C51   CG3RC1   CG3C31     9   180.000000     2.301200     6
   CG321   CG3C51   CG3RC1   CG3RC1     9     0.000000     0.627600     3
   CG321   CG3C51   CG3RC1     HGA1     9     0.000000     0.627600     3
   CG321   CG3C51   OG3C51   CG3C51     9     0.000000     1.255200     3
   CG321   CG3C51   OG3C51   CG3C52     9     0.000000     1.255200     3
   CG321   CG3C51   OG3C51   CG3C53     9     0.000000     3.347200     3
   CG321   CG3C53    NG3P2   CG3C54     9     0.000000     7.322000     2
   CG321   CG3C53    NG3P2   CG3C54     9     0.000000     2.928800     3
   CG321   CG3C53    NG3P2     HGP2     9     0.000000     1.966480     3
   CG321   CG3C53    NG3P2     HGP2     9   180.000000     1.004160     6
   CG321   CG3RC1   CG3RC1    CG321     9     0.000000     0.627600     3
   CG321   CG3RC1   CG3RC1    CG324     9     0.000000     0.000000     2
   CG321   CG3RC1   CG3RC1    CG324     9   180.000000     1.548080     3
   CG321   CG3RC1   CG3RC1    CG331     9     0.000000     0.209200     3
   CG321   CG3RC1   CG3RC1   CG3C31     9     0.000000     0.627600     3
   CG321   CG3RC1   CG3RC1   CG3C41     9   180.000000     2.343040     3
   CG321   CG3RC1   CG3RC1   CG3C41     9     0.000000     1.882800     6
   CG321   CG3RC1   CG3RC1   CG3C50     9     0.000000     0.209200     3
   CG321   CG3RC1   CG3RC1   CG3C51     9     0.000000     0.209200     3
   CG321   CG3RC1   CG3RC1   CG3C52     9     0.000000     0.627600     3
   CG321   CG3RC1   CG3RC1   CG3C54     9   180.000000     1.213360     3
   CG321   CG3RC1   CG3RC1   CG3C54     9     0.000000     1.297040     4
   CG321   CG3RC1   CG3RC1   CG3RC1     9   180.000000     7.614880     2
   CG321   CG3RC1   CG3RC1   CG3RC1     9     0.000000     1.464400     3
   CG321   CG3RC1   CG3RC1   CG3RC1     9     0.000000     0.418400     6
   CG321   CG3RC1   CG3RC1    NG2S0     9   180.000000     0.753120     3
   CG321   CG3RC1   CG3RC1    NG2S0     9   180.000000     2.761440     6
   CG321   CG3RC1   CG3RC1    NG321     9     0.000000     0.000000     1
   CG321   CG3RC1   CG3RC1    NG321     9     0.000000     0.376560     2
   CG321   CG3RC1   CG3RC1    NG321     9   180.000000     0.334720     3
   CG321   CG3RC1   CG3RC1    NG321     9     0.000000     0.083680     4
   CG321   CG3RC1   CG3RC1    OG311     9   180.000000     5.815760     3
   CG321   CG3RC1   CG3RC1    OG311     9     0.000000    10.125280     4
   CG321   CG3RC1   CG3RC1   OG3C31     9     0.000000    17.991200     2
   CG321   CG3RC1   CG3RC1   OG3C31     9   180.000000     4.560560     4
   CG321   CG3RC1   CG3RC1   OG3C51     9   180.000000     0.794960     3
   CG321   CG3RC1   CG3RC1   OG3C51     9   180.000000     1.297040     4
   CG321   CG3RC1   CG3RC1   OG3C51     9   180.000000     0.209200     6
   CG321   CG3RC1   CG3RC1   OG3C61     9     0.000000     5.857600     3
   CG321   CG3RC1   CG3RC1   OG3C61     9   180.000000     1.464400     6
   CG321   CG3RC1   CG3RC1    SG3O2     9     0.000000     0.251040     2
   CG321   CG3RC1   CG3RC1    SG3O2     9   180.000000     0.753120     3
   CG321   CG3RC1   CG3RC1     HGA1     9     0.000000     0.627600     3
   CG321   CG3RC1   NG2R43   CG2R53     9   180.000000     1.799120     2
   CG321   CG3RC1   NG2R43   CG2R53     9     0.000000     2.426720     3
   CG321   CG3RC1   NG2R43    CG321     9     0.000000     0.000000     2
   CG321   CG3RC1   NG2R43    CG321     9   180.000000     2.008320     3
   CG321   CG3RC1    NG2S0    CG2O1     9   180.000000     0.251040     3
   CG321   CG3RC1    NG2S0    CG2O1     9   180.000000     2.468560     4
   CG321   CG3RC1    NG2S0    CG2O3     9     0.000000     3.974800     3
   CG321   CG3RC1    NG2S0    CG2O6     9   180.000000     4.351360     3
   CG321   CG3RC1    NG2S0    CG2O6     9   180.000000     1.506240     6
   CG321   CG3RC1    NG2S0   CG2RC0     9     0.000000     1.924640     2
   CG321   CG3RC1    NG2S0   CG2RC0     9     0.000000    22.635440     3
   CG321   CG3RC1    NG2S0   CG3C41     9   180.000000     0.962320     3
   CG321   CG3RC1    NG2S0   CG3C41     9     0.000000     0.000000     6
   CG321   CG3RC1    NG2S0   CG3C51     9   180.000000     8.535360     3
   CG321   CG3RC1    NG2S0   CG3RC1     9   180.000000     9.330320     2
   CG321   CG3RC1    NG2S0   CG3RC1     9     0.000000    27.488880     3
   CG321   CG3RC1    NG321   HGPAM2     9     0.000000     0.334720     1
   CG321   CG3RC1    NG321   HGPAM2     9     0.000000     5.522880     2
   CG321   CG3RC1    NG321   HGPAM2     9     0.000000     3.138000     3
   CG321   CG3RC1    NG3P1    CG334     9   180.000000     0.000000     1
   CG321   CG3RC1    NG3P1    CG334     9     0.000000     0.000000     2
   CG321   CG3RC1    NG3P1    CG334     9   180.000000     6.778080     3
   CG321   CG3RC1    NG3P1   CG3RC1     9     0.000000     1.297040     1
   CG321   CG3RC1    NG3P1   CG3RC1     9     0.000000     5.983120     2
   CG321   CG3RC1    NG3P1   CG3RC1     9   180.000000     2.552240     3
   CG321   CG3RC1    NG3P1     HGP2     9   180.000000     4.142160     2
   CG321   CG3RC1    NG3P1     HGP2     9   180.000000     0.083680     3
   CG321   CG3RC1    NG3P2   CG3RC1     9   180.000000     0.627600     1
   CG321   CG3RC1    NG3P2   CG3RC1     9   180.000000     1.548080     2
   CG321   CG3RC1    NG3P2   CG3RC1     9     0.000000     2.510400     3
   CG321   CG3RC1    NG3P2     HGP2     9     0.000000     2.635920     3
   CG321   CG3RC1   OG3C31   CG3RC1     9   180.000000    10.460000     3
   CG321   CG3RC1   OG3C31   CG3RC1     9     0.000000     0.083680     4
   CG321   CG3RC1   OG3C51   CG2R53     9   180.000000     6.443360     3
   CG321   CG3RC1   OG3C51   CG2R53     9   180.000000     3.347200     6
   CG321   CG3RC1   OG3C51   CG3C51     9     0.000000     0.125520     2
   CG321   CG3RC1   OG3C51   CG3C51     9   180.000000     5.146320     3
   CG321   CG3RC1   OG3C51   CG3C52     9     0.000000     0.836800     2
   CG321   CG3RC1   OG3C51   CG3C52     9     0.000000     0.669440     3
   CG321   CG3RC1    SG311   CG3C52     9     0.000000     1.882800     1
   CG321   CG3RC1    SG311   CG3C52     9   180.000000     4.811600     3
   CG321   CG3RC1    SG311   CG3C52     9   180.000000     8.953760     4
   CG321   CG3RC1    SG311   CG3RC1     9   180.000000     0.585760     1
   CG321   CG3RC1    SG311   CG3RC1     9   180.000000     1.380720     2
   CG321   CG3RC1    SG311   CG3RC1     9     0.000000    12.468320     3
   CG321   CG3RC1    SG3O2   CG3RC1     9     0.000000     0.962320     1
   CG321   CG3RC1    SG3O2   CG3RC1     9     0.000000     4.853440     2
   CG321   CG3RC1    SG3O2   CG3RC1     9   180.000000     2.677760     3
   CG321   CG3RC1    SG3O2    OG2P1     9   180.000000     3.305360     3
   CG321    NG1T1    NG1T1    NG1T1     9   180.000000     1.866064     2
   CG321    NG2S0    NG3N1     HGP1     9   180.000000     0.209200     3
   CG321    NG2S0    NG3N1     HGP1     9   180.000000     1.673600     6
   CG321    NG2S0    OG301    CG321     9   180.000000    10.543680     2
   CG321    NG2S0    OG301    CG321     9   180.000000     4.435040     3
   CG321    NG2S0    OG311     HGP1     9   180.000000     1.225494     3
   CG321    NG2S0    SG3O2   CG2R61     9     0.000000     0.292880     2
   CG321    NG2S0    SG3O2   CG2R61     9     0.000000     2.970640     3
   CG321    NG2S0    SG3O2    OG2P1     9     0.000000     0.209200     3
   CG321    NG2S0    SG3O2    OG2P1     9     0.000000     0.543920     6
   CG321    NG2S0     CN7B     ON6B     9     0.000000     7.112800     1
   CG321    NG2S0     CN7B     ON6B     9     0.000000     1.673600     2
   CG321    NG2S0     CN7B     CN7B     9     0.000000     0.000000     3
   CG321    NG2S0     CN7B      HN7     9     0.000000     0.000000     3
   CG321    NG2S3      PG1    OG2P1     9     0.000000     1.673600     3
   CG321    NG2S3      PG1    OG2P1     9     0.000000     2.092000     4
   CG321    NG2S3      PG1    OG303     9     0.000000     7.949600     2
   CG321    NG2S3    SG3O1    OG2P1     9     0.000000     2.309568     3
   CG321    NG301    OG301    CG311     9   180.000000     0.418400     3
   CG321    NG301    OG301    CG311     9   180.000000     1.380720     6
   CG321    NG301   OG3C61    CG321     9   180.000000     0.418400     2
   CG321    NG301   OG3C61    CG321     9   180.000000    12.803040     3
   CG321    NG301    SG3O2   CG2R51     9   180.000000     4.895280     1
   CG321    NG301    SG3O2   CG2R51     9     0.000000     4.853440     2
   CG321    NG301    SG3O2   CG2R51     9     0.000000     4.267680     3
   CG321    NG301    SG3O2   CG2R61     9   180.000000     4.895280     1
   CG321    NG301    SG3O2   CG2R61     9     0.000000     4.853440     2
   CG321    NG301    SG3O2   CG2R61     9     0.000000     4.267680     3
   CG321    NG301    SG3O2    CG321     9     0.000000     8.368000     2
   CG321    NG301    SG3O2    CG321     9     0.000000     1.255200     3
   CG321    NG301    SG3O2    CG331     9     0.000000     8.368000     2
   CG321    NG301    SG3O2    CG331     9     0.000000     1.255200     3
   CG321    NG301    SG3O2    OG2P1     9     0.000000     0.836800     3
   CG321    NG311    SG3O2   CG2R61     9     0.000000     6.276000     2
   CG321    NG311    SG3O2   CG2R61     9     0.000000     2.092000     3
   CG321    NG311    SG3O2    CG321     9     0.000000     8.368000     2
   CG321    NG311    SG3O2    CG321     9     0.000000     1.255200     3
   CG321    NG311    SG3O2    CG331     9     0.000000     8.368000     2
   CG321    NG311    SG3O2    CG331     9     0.000000     1.255200     3
   CG321    NG311    SG3O2   CG3C31     9     0.000000     8.368000     2
   CG321    NG311    SG3O2   CG3C31     9     0.000000     1.255200     3
   CG321    NG311    SG3O2    NG311     9   180.000000     3.773968     1
   CG321    NG311    SG3O2    NG311     9     0.000000     2.656840     2
   CG321    NG311    SG3O2    NG311     9     0.000000     6.041696     3
   CG321    NG311    SG3O2    NG311     9   180.000000     1.389088     4
   CG321    NG311    SG3O2    OG2P1     9     0.000000     0.836800     3
   CG321    NG3N1    NG3N1     HGP1     9   180.000000     1.297040     2
   CG321    NG3N1    NG3N1     HGP1     9   180.000000     0.000000     6
   CG321    OG303      PG0    CG331     9     0.000000     2.599101     2
   CG321    OG303      PG0    CG331     9   180.000000     0.105018     3
   CG321    OG303      PG0    NG2S3     9     0.000000     9.342454     1
   CG321    OG303      PG0    NG2S3     9     0.000000     1.170683     2
   CG321    OG303      PG0    NG2S3     9     0.000000     1.022988     3
   CG321    OG303      PG0    OG2P1     9     0.000000     0.418400     3
   CG321    OG303      PG0    OG303     9     0.000000     2.092000     3
   CG321    OG303      PG0    OG304     9     0.000000     3.974800     2
   CG321    OG303      PG0    OG304     9     0.000000     2.092000     3
   CG321    OG303      PG0    OG311     9     0.000000     3.974800     2
   CG321    OG303      PG0    OG311     9     0.000000     2.092000     3
   CG321    OG303      PG0    SG2P1     9     0.000000     0.418400     3
   CG321    OG303      PG0    SG2P2     9     0.000000     0.418400     3
   CG321    OG303      PG1    CG331     9     0.000000     7.833285     1
   CG321    OG303      PG1    CG331     9     0.000000     5.203641     2
   CG321    OG303      PG1    CG331     9     0.000000     3.086537     3
   CG321    OG303      PG1    NG2S3     9     0.000000     1.673600     1
   CG321    OG303      PG1    NG2S3     9     0.000000     1.087840     2
   CG321    OG303      PG1    NG2S3     9     0.000000     1.464400     3
   CG321    OG303      PG1    OG2P1     9     0.000000     0.418400     3
   CG321    OG303      PG1    OG303     9   180.000000     5.020800     1
   CG321    OG303      PG1    OG303     9   180.000000     0.418400     2
   CG321    OG303      PG1    OG303     9   180.000000     0.418400     3
   CG321    OG303      PG1    OG304     9   180.000000     5.020800     1
   CG321    OG303      PG1    OG304     9   180.000000     0.418400     2
   CG321    OG303      PG1    OG304     9   180.000000     0.418400     3
   CG321    OG303      PG1    OG311     9     0.000000     3.974800     2
   CG321    OG303      PG1    OG311     9     0.000000     2.092000     3
   CG321    OG303      PG2    OG2P1     9     0.000000     0.418400     3
   CG321    OG303      PG2    OG2S1     9     0.000000     0.418400     3
   CG321    OG303      PG2    SG2P1     9     0.000000     0.418400     3
   CG321    OG303      PG2    SG2P2     9     0.000000     0.418400     3
   CG321    OG303    SG3O1    OG2P1     9     0.000000     0.000000     3
   CG321    OG303    SG3O2    CG321     9   180.000000     4.602400     1
   CG321    OG303    SG3O2    CG321     9     0.000000     2.928800     2
   CG321    OG303    SG3O2    CG321     9     0.000000     1.255200     3
   CG321    OG303    SG3O2    OG2P1     9     0.000000     1.255200     3
   CG321    SG301    SG301    CG321     9     0.000000     4.184000     1
   CG321    SG301    SG301    CG321     9     0.000000    17.154400     2
   CG321    SG301    SG301    CG321     9     0.000000     3.765600     3
   CG321    SG301    SG301    CG331     9     0.000000     4.184000     1
   CG321    SG301    SG301    CG331     9     0.000000    17.154400     2
   CG321    SG301    SG301    CG331     9     0.000000     3.765600     3
   CG321    SG301    SG311     HGP3     9     0.000000     4.181908     1
   CG321    SG301    SG311     HGP3     9     0.000000    14.963239     2
   CG321    SG301    SG311     HGP3     9     0.000000     2.732570     3
   CG321    SG301    SG3O1    OG2P1     9     0.000000     3.842586     1
   CG321    SG301    SG3O1    OG2P1     9     0.000000    17.023022     2
   CG321    SG301    SG3O1    OG2P1     9     0.000000     1.371934     3
   CG321      CT1        C      NH1     9     0.000000     0.000000     1
   CG321      CT1        C        O     9     0.000000     5.857600     1
   CG321      CT1        C        N     9   180.000000    11.506000     2
   CG321      CT1        C        N     9     0.000000     1.255200     4
   CG321     CTD1        C      NH1     9     0.000000     0.000000     1
   CG321     CTD1        C        O     9     0.000000     5.857600     1
   CG324    CG2D1    CG2D1    CG331     9   180.000000     1.882800     1
   CG324    CG2D1    CG2D1    CG331     9   180.000000    29.288000     2
   CG324    CG2D1    CG2D1     HGA4     9   180.000000    27.279680     2
   CG324    CG2D1    CG331     HGA3     9     0.000000     0.669440     3
   CG324   CG2DC1   CG2DC1     HGA4     9   180.000000    25.522400     2
   CG324   CG2DC1   CG2R51   CG2R51     9   180.000000     4.225840     2
   CG324   CG2DC1   CG2R51   CG2R51     9   180.000000     1.757280     4
   CG324   CG2DC1   CG2R51   CG2R52     9   180.000000     3.138000     2
   CG324   CG2DC1   CG2R51   CG2R52     9     0.000000     3.681920     4
   CG324   CG2DC2   CG2DC2     HGA4     9   180.000000    25.522400     2
   CG324   CG2DC2   CG2R51   CG2R51     9   180.000000     4.225840     2
   CG324   CG2DC2   CG2R51   CG2R51     9   180.000000     1.757280     4
   CG324   CG2DC2   CG2R51   CG2R52     9   180.000000     3.138000     2
   CG324   CG2DC2   CG2R51   CG2R52     9     0.000000     3.681920     4
   CG324    CG2O1    NG2D1    CG2N1     9   180.000000     0.376560     1
   CG324    CG2O1    NG2D1    CG2N1     9     0.000000     0.418400     2
   CG324    CG2O1    NG2D1    CG2N1     9   180.000000     1.548080     3
   CG324    CG2O1    NG2S0    CG321     9     0.000000     6.317840     1
   CG324    CG2O1    NG2S0    CG321     9     0.000000     0.251040     2
   CG324    CG2O1    NG2S0    CG331     9   180.000000     1.966480     1
   CG324    CG2O1    NG2S0    CG331     9   180.000000     0.125520     2
   CG324    CG2O1    NG2S0   CG3C51     9   180.000000    11.506000     2
   CG324    CG2O1    NG2S0   CG3C51     9     0.000000     1.255200     4
   CG324    CG2O1    NG2S0   CG3C52     9   180.000000    11.506000     2
   CG324    CG2O1    NG2S0   CG3C52     9     0.000000     1.255200     4
   CG324    CG2O1    NG2S1    CG311     9     0.000000     6.694400     1
   CG324    CG2O1    NG2S1    CG311     9   180.000000    10.460000     2
   CG324    CG2O1    NG2S1    CG321     9     0.000000     6.694400     1
   CG324    CG2O1    NG2S1    CG321     9   180.000000    10.460000     2
   CG324    CG2O1    NG2S1    CG331     9     0.000000     6.694400     1
   CG324    CG2O1    NG2S1    CG331     9   180.000000    10.460000     2
   CG324    CG2O1    NG2S1     HGP1     9   180.000000    10.460000     2
   CG324    CG2O1    NG2S2     HGP1     9   180.000000     5.857600     2
   CG324    CG2O5    CG322    CG321     9     0.000000     3.891120     1
   CG324    CG2O5    CG322    CG321     9     0.000000     0.209200     2
   CG324    CG2O5    CG322    CG321     9     0.000000     1.840960     3
   CG324    CG2O5    CG322    CG321     9   180.000000     1.966480     6
   CG324    CG2O5    CG322     FGA1     9   180.000000     0.627600     1
   CG324    CG2O5    CG322     FGA1     9   180.000000     8.995600     2
   CG324    CG2O5    CG322     FGA1     9   180.000000     0.167360     3
   CG324    CG2O5    CG322     FGA1     9   180.000000     0.418400     6
   CG324    CG2O5    CG322     HGA6     9     0.000000     0.000000     2
   CG324    CG2O5    CG322     HGA6     9   180.000000     1.715440     3
   CG324   CG2R51   CG2R51    CG331     9   180.000000     3.598240     2
   CG324   CG2R51   CG2R51   NG2R50     9   180.000000    14.811360     2
   CG324   CG2R51   CG2R51   NG2R51     9   180.000000    12.552000     2
   CG324   CG2R51   CG2R51   NG2R52     9   180.000000    12.426480     2
   CG324   CG2R51   CG2R51   SG2R50     9   180.000000    10.292640     2
   CG324   CG2R51   CG2R51    HGR51     9   180.000000     4.184000     2
   CG324   CG2R51   CG2R51    HGR52     9   180.000000     4.184000     2
   CG324   CG2R51   CG2R52   CG2R61     9   180.000000     4.978960     2
   CG324   CG2R51   CG2R52    CG302     9     0.000000     2.259360     2
   CG324   CG2R51   CG2R52    CG321     9   180.000000     1.046000     2
   CG324   CG2R51   CG2R52    CG331     9   180.000000     0.711280     2
   CG324   CG2R51   CG2R52   CG3C31     9   180.000000     3.347200     2
   CG324   CG2R51   CG2R52   NG2R50     9   180.000000     6.192320     2
   CG324   CG2R51   CG2RC0   CG2R61     9   180.000000     9.204800     2
   CG324   CG2R51   CG2RC0   CG2R63     9   180.000000    10.460000     2
   CG324   CG2R51   CG2RC0   CG2RC0     9   180.000000    12.552000     2
   CG324   CG2R51   NG2R50   CG2R53     9   180.000000    10.585520     2
   CG324   CG2R51   NG2R51    CG321     9     0.000000     0.125520     2
   CG324   CG2R51   NG2R51   NG2R50     9   180.000000    12.133600     2
   CG324   CG2R51   NG2R52   CG2R53     9   180.000000    12.886720     2
   CG324   CG2R51   NG2R52    CG324     9     0.000000     0.585760     2
   CG324   CG2R51   NG2RC0   CG2R61     9     0.000000     2.719600     2
   CG324   CG2R51   NG2RC0   CG2RC0     9     0.000000     3.012480     2
   CG324   CG2R51   SG2R50   CG2R51     9     0.000000     1.213360     2
   CG324   CG2R51   SG2R50   CG2R53     9   180.000000    11.380480     2
   CG324   CG2R53   NG2R50   CG2R51     9   180.000000     5.062640     2
   CG324   CG2R53   NG2R50   CG2RC0     9   180.000000    14.936880     2
   CG324   CG2R53   NG2R51   CG2RC0     9   180.000000    17.949360     2
   CG324   CG2R53   NG2R51    CG331     9     0.000000     1.087840     2
   CG324   CG2R53   SG2R50   CG2R51     9   180.000000    16.861520     2
   CG324   CG2R61   CG2R61   CG3C31     9     0.000000     0.000000     2
   CG324   CG2R61   CG2R61   CG3C41     9     0.000000     0.502080     2
   CG324   CG2R61   CG2R61    OG301     9   180.000000    13.388800     2
   CG324   CG2R61   CG2R61    HGR61     9   180.000000    10.041600     2
   CG324   CG2R61   CG2R61    HGR62     9   180.000000    10.041600     2
   CG324   CG2R61   CG2R66   CG2R61     9   180.000000    12.970400     2
   CG324   CG2R61   CG2R66     FGR1     9   180.000000    16.484960     2
   CG324   CG2R61   CG2RC0   CG2R51     9     0.000000     0.292880     2
   CG324   CG2R61   CG2RC0   CG2RC0     9   180.000000    13.849040     2
   CG324   CG2R62   CG2R62   NG2R61     9   180.000000    13.388800     2
   CG324   CG2R62   CG2R62    HGR62     9   180.000000    22.593600     2
   CG324   CG2R62   CG2R63   NG2R61     9   180.000000    18.828000     2
   CG324   CG2R62   CG2R63   NG2R62     9   180.000000    18.828000     2
   CG324   CG2R62   CG2R63    OG2D4     9   180.000000     0.000000     2
   CG324   CG2R62   NG2R61   CG2R63     9     0.000000     0.209200     2
   CG324   CG2R62   NG2R61    CG331     9     0.000000     4.937120     2
   CG324   CG2R62   NG2R62   CG2R64     9   180.000000    10.292640     2
   CG324   CG2R64   NG2R61   CG2R63     9     0.000000     0.000000     2
   CG324   CG2R64   NG2R61    NG2S3     9   180.000000    18.200400     2
   CG324   CG2R64   NG2R62   CG2R62     9   180.000000    20.459760     2
   CG324    CG301    CG311    CG302     9     0.000000     0.585760     3
   CG324    CG301    CG311    CG302     9     0.000000     3.263520     4
   CG324    CG301    CG311    CG321     9   180.000000     0.502080     3
   CG324    CG301    CG311    CG321     9   180.000000     1.506240     4
   CG324    CG301    CG311     HGA1     9     0.000000     0.000000     3
   CG324    CG301    CG312    CG321     9   180.000000     0.041840     3
   CG324    CG301    CG312     FGA2     9   180.000000     0.334720     3
   CG324    CG301    CG321    CG2D1     9   180.000000     3.640080     3
   CG324    CG301    CG321    CG321     9     0.000000     0.836800     3
   CG324    CG301    CG321     HGA2     9     0.000000     0.836800     3
   CG324    CG301    CG324    NG3P1     9     0.000000     0.209200     2
   CG324    CG301    CG324    NG3P1     9   180.000000    11.045760     3
   CG324    CG301    CG324     HGA2     9     0.000000     0.836800     3
   CG324    CG301    CG331     HGA3     9     0.000000     0.836800     3
   CG324    CG301    NG311    CG321     9   180.000000    10.627360     1
   CG324    CG301    NG311    CG321     9     0.000000    11.338640     2
   CG324    CG301    NG311    CG321     9     0.000000    26.568400     3
   CG324    CG301    NG311   HGPAM1     9     0.000000     0.209200     2
   CG324    CG301    NG311   HGPAM1     9   180.000000     7.573040     3
   CG324    CG301    NG321   HGPAM2     9     0.000000     0.000000     3
   CG324    CG301    NG321   HGPAM2     9   180.000000     3.807440     4
   CG324    CG301    OG301    CG321     9   180.000000     0.878640     1
   CG324    CG301    OG301    CG321     9   180.000000     1.464400     2
   CG324    CG301    OG301    CG321     9     0.000000     0.669440     3
   CG324    CG301    OG311     HGP1     9     0.000000     2.092000     1
   CG324    CG301    OG311     HGP1     9     0.000000     2.928800     2
   CG324    CG301   OG3C61    CG321     9   180.000000     0.711280     2
   CG324    CG301   OG3C61    CG321     9   180.000000     1.129680     3
   CG324    CG301    SG311    CG321     9   180.000000     0.460240     3
   CG324    CG301    SG311    CG321     9   180.000000     1.380720     4
   CG324    CG311    CG311    CG331     9     0.000000     0.836800     3
   CG324    CG311    CG311    NG2S0     9     0.000000     0.836800     3
   CG324    CG311    CG311    NG301     9     0.000000     0.543920     1
   CG324    CG311    CG311    NG301     9   180.000000     0.334720     2
   CG324    CG311    CG311    NG301     9     0.000000     0.209200     3
   CG324    CG311    CG311    OG301     9     0.000000     0.167360     1
   CG324    CG311    CG311    OG301     9   180.000000     0.125520     2
   CG324    CG311    CG311    OG301     9   180.000000     1.046000     3
   CG324    CG311    CG311    OG301     9     0.000000     1.882800     5
   CG324    CG311    CG311   OG3C61     9   180.000000     0.125520     1
   CG324    CG311    CG311   OG3C61     9   180.000000     3.472720     2
   CG324    CG311    CG311   OG3C61     9     0.000000     0.292880     3
   CG324    CG311    CG311   OG3C61     9     0.000000     4.560560     5
   CG324    CG311    CG311     HGA1     9     0.000000     0.836800     3
   CG324    CG311    CG312    CG321     9   180.000000     0.000000     3
   CG324    CG311    CG312     FGA2     9     0.000000     0.543920     3
   CG324    CG311    CG314    CG321     9     0.000000     0.836800     3
   CG324    CG311    CG314    NG3P2     9     0.000000     0.041840     2
   CG324    CG311    CG314    NG3P2     9     0.000000     0.209200     3
   CG324    CG311    CG314     HGA1     9     0.000000     0.836800     3
   CG324    CG311    CG321    CG311     9     0.000000     0.836800     3
   CG324    CG311    CG321    CG314     9     0.000000     0.836800     3
   CG324    CG311    CG321    CG321     9     0.000000     0.815880     3
   CG324    CG311    CG321    CG324     9     0.000000     0.815880     3
   CG324    CG311    CG321   CG3RC1     9   180.000000     5.188160     3
   CG324    CG311    CG321   CG3RC1     9   180.000000     7.656720     4
   CG324    CG311    CG321   NG2R51     9     0.000000     1.087840     3
   CG324    CG311    CG321    NG2S1     9     0.000000     0.836800     3
   CG324    CG311    CG321    OG301     9   180.000000     1.297040     3
   CG324    CG311    CG321    OG301     9     0.000000     1.422560     4
   CG324    CG311    CG321     HGA2     9     0.000000     0.815880     3
   CG324    CG311    CG322    CG321     9     0.000000    13.095920     3
   CG324    CG311    CG322     FGA1     9     0.000000     2.301200     3
   CG324    CG311    CG322     HGA6     9     0.000000    20.376080     3
   CG324    CG311    CG324    NG3P1     9     0.000000     1.129680     2
   CG324    CG311    CG324    NG3P1     9     0.000000     0.376560     3
   CG324    CG311    CG324    NG3P2     9     0.000000     7.154640     2
   CG324    CG311    CG324    NG3P2     9   180.000000     7.196480     3
   CG324    CG311    CG324     HGA2     9     0.000000     0.836800     3
   CG324    CG311    CG331     HGA3     9     0.000000     0.836800     3
   CG324    CG311   CG3C50    CG311     9     0.000000     1.338880     3
   CG324    CG311   CG3C50    SG311     9   180.000000     2.928800     3
   CG324    CG311   CG3C51   CG3C52     9     0.000000    13.430640     3
   CG324    CG311   CG3C51   CG3C52     9     0.000000     5.188160     4
   CG324    CG311   CG3C51   NG2R53     9   180.000000    10.418160     1
   CG324    CG311   CG3C51   NG2R53     9   180.000000     3.096160     3
   CG324    CG311   CG3C51   NG2R53     9     0.000000     2.426720     4
   CG324    CG311   CG3C51     HGA1     9     0.000000     0.000000     3
   CG324    CG311   CG3C53   CG3C52     9   180.000000     0.251040     3
   CG324    CG311   CG3C53   CG3C52     9   180.000000     2.008320     4
   CG324    CG311   CG3C53    NG3P2     9   180.000000     1.464400     3
   CG324    CG311   CG3C53     HGA1     9     0.000000     0.000000     3
   CG324    CG311   CG3RC1   CG3C52     9   180.000000     1.171520     3
   CG324    CG311   CG3RC1   CG3C52     9   180.000000    15.606320     4
   CG324    CG311   CG3RC1   CG3RC1     9     0.000000     2.092000     2
   CG324    CG311   CG3RC1   CG3RC1     9   180.000000     1.046000     3
   CG324    CG311   CG3RC1     HGA1     9     0.000000     0.000000     3
   CG324    CG311   NG2R51   CG2R53     9     0.000000     9.916080     1
   CG324    CG311   NG2R51   CG2R53     9     0.000000     0.711280     2
   CG324    CG311   NG2R51   CG2R53     9   180.000000     3.681920     3
   CG324    CG311   NG2R51   CG2R53     9   180.000000     1.255200     4
   CG324    CG311   NG2R51   CG2R53     9     0.000000     6.234160     6
   CG324    CG311   NG2R51   CG2RC0     9     0.000000     1.213360     1
   CG324    CG311   NG2R51   CG2RC0     9   180.000000     6.945440     2
   CG324    CG311   NG2R51   CG2RC0     9   180.000000     8.200640     3
   CG324    CG311   NG2R51   CG2RC0     9   180.000000     0.543920     4
   CG324    CG311   NG2R51   CG2RC0     9   180.000000     4.518720     6
   CG324    CG311   NG2R61   CG2R63     9     0.000000     2.594080     2
   CG324    CG311   NG2R61   CG2R63     9   180.000000     2.468560     3
   CG324    CG311   NG2R61   CG2R64     9     0.000000     0.000000     2
   CG324    CG311   NG2R61   CG2R64     9     0.000000     2.092000     3
   CG324    CG311    NG2S0    CG2O1     9   180.000000     0.878640     1
   CG324    CG311    NG2S0    CG2O1     9     0.000000     6.108640     2
   CG324    CG311    NG2S0    CG311     9     0.000000     1.589920     1
   CG324    CG311    NG2S0    CG311     9   180.000000     0.376560     2
   CG324    CG311    NG2S0    CG311     9     0.000000     6.317840     3
   CG324    CG311    NG2S1    CG2O1     9     0.000000     7.531200     1
   CG324    CG311    NG2S1    CG2O6     9     0.000000     7.531200     1
   CG324    CG311    NG2S1     HGP1     9     0.000000     0.000000     1
   CG324    CG311    NG301    CG311     9     0.000000     0.543920     1
   CG324    CG311    NG301    CG311     9     0.000000     6.694400     2
   CG324    CG311    NG301    CG311     9     0.000000     0.334720     3
   CG324    CG311    NG301    CG331     9   180.000000     1.004160     1
   CG324    CG311    NG301    CG331     9     0.000000     0.753120     2
   CG324    CG311    NG301    CG331     9   180.000000     1.548080     3
   CG324    CG311    NG311    CG311     9     0.000000     2.217520     1
   CG324    CG311    NG311    CG311     9     0.000000     3.430880     2
   CG324    CG311    NG311    CG311     9     0.000000     2.510400     3
   CG324    CG311    NG311   HGPAM1     9   180.000000     0.962320     3
   CG324    CG311    NG321   HGPAM2     9     0.000000     6.945440     1
   CG324    CG311    NG321   HGPAM2     9     0.000000     2.510400     2
   CG324    CG311    NG321   HGPAM2     9   180.000000     3.138000     3
   CG324    CG311    OG301   CG2R61     9     0.000000     0.292880     1
   CG324    CG311    OG301   CG2R61     9   180.000000     0.000000     2
   CG324    CG311    OG301   CG2R61     9     0.000000     0.000000     3
   CG324    CG311    OG311     HGP1     9     0.000000     2.092000     1
   CG324    CG311    OG311     HGP1     9     0.000000     2.928800     2
   CG324    CG311   OG3C61    CG311     9     0.000000     2.092000     3
   CG324    CG311   OG3C61    CG321     9     0.000000     2.092000     3
   CG324    CG312    CG321    CG321     9     0.000000     7.949600     1
   CG324    CG312    CG321    CG321     9     0.000000    16.610480     3
   CG324    CG312    CG321     HGA2     9     0.000000     0.000000     3
   CG324    CG314    CG321    CG311     9     0.000000     0.836800     3
   CG324    CG314    CG321    CG321     9     0.000000     0.836800     3
   CG324    CG314    CG321     HGA2     9     0.000000     0.836800     3
   CG324    CG314    NG3P2    CG324     9   180.000000     1.715440     2
   CG324    CG314    NG3P2    CG324     9     0.000000     2.217520     3
   CG324    CG314    NG3P2     HGP2     9     0.000000     0.000000     2
   CG324    CG314    NG3P2     HGP2     9     0.000000     0.460240     3
   CG324    CG314    NG3P3     HGP2     9     0.000000     0.920480     3
   CG324    CG321    CG321    CG324     9     0.000000     0.815880     3
   CG324    CG321    CG321    CG331     9     0.000000     0.815880     3
   CG324    CG321    CG321   CG3C41     9     0.000000     0.836800     3
   CG324    CG321    CG321   CG3C50     9     0.000000    33.974080     3
   CG324    CG321    CG321    NG301     9   180.000000     0.376560     1
   CG324    CG321    CG321    NG301     9   180.000000     2.803280     2
   CG324    CG321    CG321    NG301     9     0.000000     1.924640     3
   CG324    CG321    CG321    NG311     9   180.000000    17.698320     3
   CG324    CG321    CG321    NG311     9     0.000000    22.970160     4
   CG324    CG321    CG321    OG301     9   180.000000     1.673600     1
   CG324    CG321    CG321    OG301     9   180.000000     2.050160     2
   CG324    CG321    CG321    OG301     9     0.000000     4.309520     3
   CG324    CG321    CG321    SG311     9     0.000000     0.836800     3
   CG324    CG321    CG321     HGA2     9     0.000000     0.815880     3
   CG324    CG321    CG322    CG311     9   180.000000     0.543920     3
   CG324    CG321    CG322     FGA1     9   180.000000     1.255200     3
   CG324    CG321    CG322     HGA6     9   180.000000     2.928800     3
   CG324    CG321    CG324    NG2P1     9     0.000000     0.334720     3
   CG324    CG321    CG324     HGA2     9     0.000000     0.836800     3
   CG324    CG321    CG331     HGA3     9     0.000000     0.836800     3
   CG324    CG321   CG3C50   CG2RC0     9     0.000000     2.008320     2
   CG324    CG321   CG3C50   CG2RC0     9   180.000000     2.008320     3
   CG324    CG321   CG3C50   CG2RC0     9     0.000000     0.669440     4
   CG324    CG321   CG3C50    CG321     9     0.000000     0.711280     3
   CG324    CG321   CG3C50    CG321     9     0.000000     6.234160     4
   CG324    CG321   CG3C50   CG3C51     9     0.000000     3.514560     4
   CG324    CG321   CG3C50   CG3C52     9     0.000000     5.313680     4
   CG324    CG321   CG3C50   CG3C52     9     0.000000     1.338880     6
   CG324    CG321   CG3C50   OG3C51     9   180.000000     7.029120     1
   CG324    CG321   CG3C50   OG3C51     9   180.000000     7.322000     3
   CG324    CG321   CG3RC1    CG331     9     0.000000     1.338880     3
   CG324    CG321   CG3RC1    CG331     9     0.000000     5.062640     4
   CG324    CG321   CG3RC1   CG3C31     9   180.000000     2.552240     2
   CG324    CG321   CG3RC1   CG3C31     9     0.000000     2.468560     3
   CG324    CG321   CG3RC1   CG3C41     9     0.000000     7.447520     3
   CG324    CG321   CG3RC1   CG3C41     9     0.000000     6.485200     4
   CG324    CG321   CG3RC1   CG3C52     9   180.000000     0.753120     2
   CG324    CG321   CG3RC1   CG3C52     9     0.000000     0.125520     3
   CG324    CG321   CG3RC1   CG3RC1     9     0.000000     4.686080     3
   CG324    CG321   CG3RC1   CG3RC1     9   180.000000     0.502080     4
   CG324    CG321   CG3RC1    NG2S0     9     0.000000     0.125520     2
   CG324    CG321   CG3RC1    NG2S0     9     0.000000     1.171520     3
   CG324    CG321   CG3RC1     HGA1     9     0.000000     0.000000     3
   CG324    CG321   NG2R51   CG2R51     9     0.000000     3.849280     1
   CG324    CG321   NG2R51   CG2R51     9     0.000000     0.627600     2
   CG324    CG321   NG2R51   CG2R51     9     0.000000     4.184000     3
   CG324    CG321   NG2R51   CG2R51     9   180.000000     1.506240     4
   CG324    CG321   NG2R51   NG2R50     9   180.000000     4.602400     1
   CG324    CG321   NG2R51   NG2R50     9     0.000000     2.510400     2
   CG324    CG321   NG2R51   NG2R50     9   180.000000     3.807440     3
   CG324    CG321   NG2R51   NG2R50     9   180.000000     2.468560     4
   CG324    CG321    NG2S0    CG2O1     9     0.000000    12.175440     1
   CG324    CG321    NG2S0    CG2O1     9     0.000000     0.878640     4
   CG324    CG321    NG2S0    CG331     9     0.000000     0.000000     2
   CG324    CG321    NG2S0    CG331     9     0.000000     1.673600     3
   CG324    CG321    NG2S1    CG2O1     9     0.000000     7.531200     1
   CG324    CG321    NG2S1     HGP1     9     0.000000     0.000000     1
   CG324    CG321    NG301    CG331     9   180.000000     1.213360     1
   CG324    CG321    NG301    CG331     9   180.000000     0.376560     2
   CG324    CG321    NG301    CG331     9     0.000000     7.614880     3
   CG324    CG321    NG301   CG3C31     9     0.000000     0.083680     1
   CG324    CG321    NG301   CG3C31     9   180.000000     0.000000     2
   CG324    CG321    NG301   CG3C31     9     0.000000     5.146320     3
   CG324    CG321    NG311   CG2D1O     9     0.000000     0.334720     1
   CG324    CG321    NG311   CG2D1O     9   180.000000     2.133840     3
   CG324    CG321    NG311   CG2D1O     9     0.000000     3.179840     4
   CG324    CG321    NG311   CG2D2O     9     0.000000     0.334720     1
   CG324    CG321    NG311   CG2D2O     9   180.000000     2.133840     3
   CG324    CG321    NG311   CG2D2O     9     0.000000     3.179840     4
   CG324    CG321    NG311    CG311     9     0.000000     2.301200     1
   CG324    CG321    NG311    CG311     9     0.000000    31.212640     2
   CG324    CG321    NG311    CG311     9   180.000000     2.970640     3
   CG324    CG321    NG311   CG3C31     9     0.000000     1.046000     1
   CG324    CG321    NG311   CG3C31     9     0.000000    11.882560     2
   CG324    CG321    NG311   CG3C31     9   180.000000     6.610720     3
   CG324    CG321    NG311   HGPAM1     9   180.000000     3.389040     3
   CG324    CG321    OG301   CG2R61     9     0.000000     2.301200     1
   CG324    CG321    OG301   CG2R61     9   180.000000     2.050160     2
   CG324    CG321    OG301   CG2R61     9   180.000000     6.359680     3
   CG324    CG321    OG301   CG2R61     9   180.000000     0.292880     6
   CG324    CG321    OG301    CG301     9     0.000000     0.502080     1
   CG324    CG321    OG301    CG301     9   180.000000     0.585760     2
   CG324    CG321    OG301    CG301     9     0.000000     3.138000     3
   CG324    CG321    OG301    CG321     9     0.000000     0.125520     1
   CG324    CG321    OG301    CG321     9   180.000000     3.221680     2
   CG324    CG321    OG301    CG321     9   180.000000     1.589920     3
   CG324    CG321    OG302    CG2O2     9     0.000000     0.000000     3
   CG324    CG321    OG303      PG1     9   180.000000     2.510400     1
   CG324    CG321    OG303      PG1     9     0.000000     2.719600     2
   CG324    CG321    OG303      PG1     9     0.000000     0.209200     3
   CG324    CG321    OG311     HGP1     9     0.000000     4.727920     1
   CG324    CG321    OG311     HGP1     9     0.000000     0.585760     2
   CG324    CG321    OG311     HGP1     9     0.000000     1.004160     3
   CG324    CG321   OG3C61    CG301     9     0.000000     2.092000     3
   CG324    CG321   OG3C61    CG311     9     0.000000     2.092000     3
   CG324    CG321   OG3C61    CG321     9     0.000000     2.092000     3
   CG324    CG321   OG3C61   CG3C31     9     0.000000     2.092000     3
   CG324    CG321    SG311    CG301     9     0.000000     0.836800     3
   CG324    CG321    SG311    CG311     9     0.000000     0.836800     3
   CG324    CG321    SG311    CG321     9     0.000000     0.815880     3
   CG324    CG321    SG3O1    OG2P1     9     0.000000     0.920480     3
   CG324    CG321    SG3O2    CG311     9     0.000000     0.502080     1
   CG324    CG321    SG3O2    CG311     9   180.000000     0.669440     2
   CG324    CG321    SG3O2    CG311     9   180.000000     2.217520     3
   CG324    CG321    SG3O2    OG2P1     9   180.000000     4.853440     3
   CG324    CG321    SG3O2    OG2P1     9   180.000000     0.083680     6
   CG324    CG321    SG3O3    CG311     9   180.000000     0.125520     1
   CG324    CG321    SG3O3    CG311     9     0.000000    10.418160     2
   CG324    CG321    SG3O3    CG311     9   180.000000     5.439200     3
   CG324    CG321    SG3O3    CG321     9     0.000000     0.000000     1
   CG324    CG321    SG3O3    CG321     9     0.000000    16.150240     2
   CG324    CG321    SG3O3    CG321     9   180.000000    15.899200     3
   CG324    CG321    SG3O3    OG2P1     9   180.000000     2.845120     1
   CG324    CG321    SG3O3    OG2P1     9     0.000000     5.062640     2
   CG324    CG321    SG3O3    OG2P1     9     0.000000     4.351360     3
   CG324    CG321    SG3O3    OG2P1     9   180.000000     2.886960     6
   CG324    CG321      CT1        C     9     0.000000     0.815880     3
   CG324    CG321     CTD1        C     9     0.000000     0.815880     3
   CG324    CG324   NG2R52   CG2R51     9   180.000000     8.242480     2
   CG324    CG324   NG2R52   CG2R51     9     0.000000     1.589920     3
   CG324    CG324   NG2R52   CG2R53     9     0.000000     0.000000     2
   CG324    CG324   NG2R52   CG2R53     9     0.000000     2.845120     3
   CG324    CG324    NG3P1    CG324     9     0.000000     1.087840     3
   CG324    CG324    NG3P1    CG334     9     0.000000     0.878640     3
   CG324    CG324    NG3P1     HGP2     9     0.000000     0.376560     3
   CG324   CG3C31   CG3C31   CG3C31     9     0.000000     0.418400     6
   CG324   CG3C31   CG3C31     HGA2     9   180.000000     0.836800     5
   CG324   CG3C31   CG3RC1   CG2RC0     9     0.000000     0.000000     2
   CG324   CG3C31   CG3RC1   CG2RC0     9     0.000000     7.991440     3
   CG324   CG3C31   CG3RC1   CG3C52     9   180.000000    10.836560     2
   CG324   CG3C31   CG3RC1   CG3C52     9     0.000000     1.338880     3
   CG324   CG3C31   CG3RC1   CG3RC1     9     0.000000     2.761440     2
   CG324   CG3C31   CG3RC1   CG3RC1     9   180.000000    11.715200     3
   CG324   CG3C31   CG3RC1     HGA1     9     0.000000     0.000000     3
   CG324   CG3C31    NG301    CG321     9     0.000000     0.418400     1
   CG324   CG3C31    NG301    CG321     9     0.000000     4.058480     3
   CG324   CG3C31    NG301    CG331     9   180.000000     0.502080     1
   CG324   CG3C31    NG301    CG331     9     0.000000     4.142160     3
   CG324   CG3C31    NG311    CG321     9     0.000000     3.012480     1
   CG324   CG3C31    NG311    CG321     9   180.000000     1.046000     3
   CG324   CG3C31    NG311   HGPAM1     9     0.000000     0.794960     2
   CG324   CG3C31    NG311   HGPAM1     9   180.000000     2.008320     3
   CG324   CG3C31   OG3C61    CG321     9     0.000000     4.058480     1
   CG324   CG3C31   OG3C61    CG321     9   180.000000     0.083680     3
   CG324   CG3C41   CG3C41   CG3C41     9     0.000000     3.096160     3
   CG324   CG3C41   CG3C41   CG3C41     9     0.000000     0.251040     4
   CG324   CG3C41   CG3C41    SG3O2     9     0.000000     6.192320     3
   CG324   CG3C41   CG3C41    SG3O2     9   180.000000     0.711280     6
   CG324   CG3C41   CG3C41     HGA2     9     0.000000     0.000000     3
   CG324   CG3C41   OG3C51   CG3C41     9     0.000000     2.594080     3
   CG324   CG3C50   CG3C52   CG2RC0     9   180.000000     1.380720     3
   CG324   CG3C50   CG3C52   CG2RC0     9     0.000000     3.012480     4
   CG324   CG3C50   CG3C52   CG2RC0     9   180.000000     1.004160     6
   CG324   CG3C50   CG3C52   CG3C52     9     0.000000     0.418400     3
   CG324   CG3C50   CG3C52     HGA2     9     0.000000     0.083680     3
   CG324   CG3C50   NG3C51    CG331     9   180.000000     0.292880     3
   CG324   CG3C50   NG3C51   CG3C52     9     0.000000     0.083680     3
   CG324   CG3C50   NG3C51   CG3C52     9   180.000000     0.251040     4
   CG324   CG3C50    OG311     HGP1     9     0.000000     4.853440     1
   CG324   CG3C50    OG311     HGP1     9     0.000000     0.669440     2
   CG324   CG3C50    OG311     HGP1     9     0.000000     1.422560     3
   CG324   CG3C50   OG3C51   CG3C52     9   180.000000     6.024960     3
   CG324   CG3C51   CG3C52   CG3C52     9     0.000000     0.418400     3
   CG324   CG3C51   CG3C52     HGA2     9     0.000000     0.083680     3
   CG324   CG3C51   NG3C51   CG2RC0     9     0.000000     8.744560     2
   CG324   CG3C51   NG3C51   CG2RC0     9   180.000000     6.610720     3
   CG324   CG3C51   NG3C51     HGP1     9   180.000000     4.351360     1
   CG324   CG3C51   NG3C51     HGP1     9   180.000000     3.556400     3
   CG324   CG3C51   NG3C51     HGP1     9     0.000000     1.046000     4
   CG324   CG3RC1   CG3RC1    CG331     9   180.000000    12.719360     2
   CG324   CG3RC1   CG3RC1    CG331     9   180.000000     0.000000     3
   CG324   CG3RC1   CG3RC1   CG3C31     9     0.000000    15.899200     2
   CG324   CG3RC1   CG3RC1   CG3C31     9   180.000000     2.343040     3
   CG324   CG3RC1   CG3RC1   CG3C41     9   180.000000     1.255200     2
   CG324   CG3RC1   CG3RC1   CG3C41     9   180.000000     0.794960     3
   CG324   CG3RC1   CG3RC1   CG3C52     9   180.000000     0.753120     2
   CG324   CG3RC1   CG3RC1   CG3C52     9     0.000000     0.251040     3
   CG324   CG3RC1   CG3RC1    NG2S0     9   180.000000     5.773920     2
   CG324   CG3RC1   CG3RC1    NG2S0     9   180.000000    20.836320     3
   CG324   CG3RC1   CG3RC1     HGA1     9     0.000000     0.000000     3
   CG324   CG3RC1   OG3C51   CG3C51     9   180.000000     0.376560     2
   CG324   CG3RC1   OG3C51   CG3C51     9     0.000000     0.083680     3
   CG324      CT1        C      NH1     9   180.000000     0.209200     6
   CG324      CT1        C        O     9   180.000000     0.209200     6
   CG324      CT1        C        N     9   180.000000    11.506000     2
   CG324      CT1        C        N     9     0.000000     1.255200     4
   CG324     CTD1        C      NH1     9   180.000000     0.209200     6
   CG324     CTD1        C        O     9   180.000000     0.209200     6
   CG331    CG2D1    CG2D1    CG331     9   180.000000     1.882800     1
   CG331    CG2D1    CG2D1    CG331     9   180.000000    35.564000     2
   CG331    CG2D1    CG2D1   CG3C50     9   180.000000     0.209200     1
   CG331    CG2D1    CG2D1   CG3C50     9   180.000000    19.748480     2
   CG331    CG2D1    CG2D1   CG3C51     9     0.000000     0.167360     1
   CG331    CG2D1    CG2D1   CG3C51     9   180.000000    16.108400     2
   CG331    CG2D1    CG2D1     FGA1     9   180.000000     0.251040     1
   CG331    CG2D1    CG2D1     FGA1     9   180.000000     0.962320     2
   CG331    CG2D1    CG2D1     HGA4     9   180.000000     4.184000     2
   CG331    CG2D1   CG2D1O    NG311     9   180.000000    12.552000     2
   CG331    CG2D1   CG2D1O    NG3P2     9   180.000000    38.743840     2
   CG331    CG2D1   CG2D1O   OG3R60     9   180.000000    12.552000     2
   CG331    CG2D1   CG2D1O     HGA4     9   180.000000    25.104000     2
   CG331    CG2D1    CG2D2     HGA5     9   180.000000    21.756800     2
   CG331    CG2D1   CG2D2O    NG311     9   180.000000    12.552000     2
   CG331    CG2D1   CG2D2O    NG3P2     9   180.000000    38.743840     2
   CG331    CG2D1   CG2D2O   OG3R60     9   180.000000    12.552000     2
   CG331    CG2D1   CG2D2O     HGA4     9   180.000000    25.104000     2
   CG331    CG2D1    CG301    CG321     9     0.000000     1.673600     3
   CG331    CG2D1    CG301    CG331     9     0.000000     1.673600     3
   CG331    CG2D1    CG301    NG301     9     0.000000     0.376560     2
   CG331    CG2D1    CG301    NG301     9   180.000000     4.518720     3
   CG331    CG2D1    CG311   CG2DC1     9   180.000000     2.050160     2
   CG331    CG2D1    CG311   CG2DC1     9   180.000000     0.711280     3
   CG331    CG2D1    CG311   CG2DC2     9   180.000000     2.050160     2
   CG331    CG2D1    CG311   CG2DC2     9   180.000000     0.711280     3
   CG331    CG2D1    CG311    CG2O1     9     0.000000     0.836800     2
   CG331    CG2D1    CG311    CG2O1     9     0.000000    11.840720     3
   CG331    CG2D1    CG311    CG301     9     0.000000     0.794960     3
   CG331    CG2D1    CG311    CG311     9     0.000000     0.794960     3
   CG331    CG2D1    CG311    CG321     9     0.000000     0.794960     3
   CG331    CG2D1    CG311    CG324     9     0.000000     1.046000     2
   CG331    CG2D1    CG311    CG324     9   180.000000     0.502080     3
   CG331    CG2D1    CG311   CG3C50     9   180.000000     4.309520     2
   CG331    CG2D1    CG311   CG3C50     9   180.000000     1.213360     3
   CG331    CG2D1    CG311    OG311     9   180.000000     1.046000     1
   CG331    CG2D1    CG311    OG311     9   180.000000     2.175680     2
   CG331    CG2D1    CG311    OG311     9   180.000000     0.962320     3
   CG331    CG2D1    CG311     HGA1     9     0.000000     0.794960     3
   CG331    CG2D1    CG321    CG2O5     9     0.000000     0.167360     3
   CG331    CG2D1    CG321    CG2O5     9   180.000000     0.292880     6
   CG331    CG2D1    CG321    CG301     9     0.000000     0.794960     3
   CG331    CG2D1    CG321    CG311     9     0.000000     0.794960     3
   CG331    CG2D1    CG321    CG321     9     0.000000     0.794960     3
   CG331    CG2D1    CG321    NG2S0     9     0.000000     0.167360     2
   CG331    CG2D1    CG321    NG2S0     9   180.000000     1.046000     3
   CG331    CG2D1    CG321    NG301     9   180.000000     0.627600     1
   CG331    CG2D1    CG321    NG301     9     0.000000     0.000000     2
   CG331    CG2D1    CG321    NG301     9     0.000000     1.548080     3
   CG331    CG2D1    CG321    NG311     9   180.000000     0.502080     1
   CG331    CG2D1    CG321    NG311     9     0.000000     0.000000     2
   CG331    CG2D1    CG321    NG311     9   180.000000     5.732080     3
   CG331    CG2D1    CG321    OG311     9   180.000000     1.046000     1
   CG331    CG2D1    CG321    OG311     9   180.000000     2.175680     2
   CG331    CG2D1    CG321    OG311     9   180.000000     0.962320     3
   CG331    CG2D1    CG321    SG311     9   180.000000     1.129680     1
   CG331    CG2D1    CG321    SG311     9   180.000000     0.794960     2
   CG331    CG2D1    CG321    SG311     9     0.000000     2.301200     3
   CG331    CG2D1    CG321     HGA2     9     0.000000     0.794960     3
   CG331    CG2D1    CG324    NG3P2     9   180.000000     0.209200     1
   CG331    CG2D1    CG324    NG3P2     9   180.000000    11.673360     2
   CG331    CG2D1    CG324    NG3P2     9   180.000000     1.255200     3
   CG331    CG2D1    CG324     HGA2     9     0.000000     0.794960     3
   CG331    CG2D1    CG331     HGA3     9     0.000000     0.669440     3
   CG331    CG2D1   CG3RC1   CG3C31     9   180.000000     9.832400     2
   CG331    CG2D1   CG3RC1   CG3C31     9   180.000000     0.334720     3
   CG331    CG2D1   CG3RC1   CG3RC1     9     0.000000     0.000000     2
   CG331    CG2D1   CG3RC1   CG3RC1     9   180.000000     1.589920     3
   CG331    CG2D1   CG3RC1     HGA1     9     0.000000     0.000000     3
   CG331    CG2D1    NG2D1    CG321     9   180.000000    50.208000     2
   CG331    CG2D1    NG2D1    CG331     9   180.000000    50.208000     2
   CG331    CG2D1    NG2D1    NG2S0     9   180.000000    50.208000     2
   CG331    CG2D1    NG2D1    NG2S1     9   180.000000    50.208000     2
   CG331    CG2D1    NG2D1    NG3N1     9   180.000000    38.325440     2
   CG331    CG2D1    NG2D1   OG3R60     9   180.000000    41.128720     2
   CG331    CG2D1    NG2P1    CG334     9   180.000000    29.288000     2
   CG331    CG2D1    NG2P1     HGP2     9   180.000000    20.920000     2
   CG331   CG2D1O   CG2D1O    NG301     9   180.000000    11.380480     2
   CG331   CG2D1O   CG2D1O     HGA4     9     0.000000     0.753120     2
   CG331   CG2D1O   CG2D1O     HGA4     9   180.000000     1.506240     3
   CG331   CG2D1O   CG2DC1   CG2DC2     9     0.000000     2.133840     1
   CG331   CG2D1O   CG2DC1   CG2DC2     9     0.000000     0.543920     2
   CG331   CG2D1O   CG2DC1    CG2O5     9     0.000000     0.000000     1
   CG331   CG2D1O   CG2DC1    CG2O5     9   180.000000    12.426480     2
   CG331   CG2D1O   CG2DC1     HGA4     9   180.000000    11.798880     2
   CG331   CG2D1O    NG2D1   CG2R64     9   180.000000     0.000000     1
   CG331   CG2D1O    NG2D1   CG2R64     9   180.000000    12.049920     2
   CG331   CG2D1O    NG2D1    CG301     9   180.000000    27.237840     2
   CG331   CG2D1O    NG2D1    CG321     9   180.000000    27.238677     2
   CG331   CG2D1O    NG2D1    CG331     9   180.000000    27.238677     2
   CG331   CG2D1O    NG2D1    NG2D1     9   180.000000    13.388800     2
   CG331   CG2D1O    NG2S0    CG2O1     9     0.000000     0.711280     2
   CG331   CG2D1O    NG2S0    CG331     9     0.000000     0.418400     2
   CG331   CG2D1O    OG311     HGP1     9   180.000000    12.552000     2
   CG331   CG2D1O   OG3R60    CG311     9     0.000000     0.000000     2
   CG331   CG2D1O    SG311    CG331     9   180.000000    10.818569     2
   CG331   CG2D1O    SG311   CG3C51     9   180.000000    10.818569     2
   CG331   CG2D2O   CG2D2O    NG301     9   180.000000    11.380480     2
   CG331   CG2D2O   CG2D2O     HGA4     9     0.000000     0.753120     2
   CG331   CG2D2O   CG2D2O     HGA4     9   180.000000     1.506240     3
   CG331   CG2D2O   CG2DC2   CG2DC1     9     0.000000     2.133840     1
   CG331   CG2D2O   CG2DC2   CG2DC1     9     0.000000     0.543920     2
   CG331   CG2D2O   CG2DC2    CG2O5     9     0.000000     0.000000     1
   CG331   CG2D2O   CG2DC2    CG2O5     9   180.000000    12.426480     2
   CG331   CG2D2O   CG2DC2     HGA4     9   180.000000    11.798880     2
   CG331   CG2D2O    NG2D1   CG2R64     9   180.000000     0.000000     1
   CG331   CG2D2O    NG2D1   CG2R64     9   180.000000    12.049920     2
   CG331   CG2D2O    NG2D1    CG301     9   180.000000    27.237840     2
   CG331   CG2D2O    NG2D1    CG321     9   180.000000    27.238677     2
   CG331   CG2D2O    NG2D1    CG331     9   180.000000    27.238677     2
   CG331   CG2D2O    NG2D1    NG2D1     9   180.000000    13.388800     2
   CG331   CG2D2O    NG2S0    CG2O1     9     0.000000     0.711280     2
   CG331   CG2D2O    NG2S0    CG331     9     0.000000     0.418400     2
   CG331   CG2D2O    OG311     HGP1     9   180.000000    12.552000     2
   CG331   CG2D2O   OG3R60    CG311     9     0.000000     0.000000     2
   CG331   CG2D2O    SG311    CG331     9   180.000000    10.818569     2
   CG331   CG2D2O    SG311   CG3C51     9   180.000000    10.818569     2
   CG331   CG2DC1   CG2DC1    CG331     9   180.000000    41.840000     2
   CG331   CG2DC1   CG2DC1   CG3RC1     9   180.000000    29.748240     2
   CG331   CG2DC1   CG2DC1     HGA4     9   180.000000    21.756800     2
   CG331   CG2DC1   CG2DC2   CG2D2O     9   180.000000     4.602400     1
   CG331   CG2DC1   CG2DC2   CG2D2O     9   180.000000     2.928800     2
   CG331   CG2DC1   CG2DC2   CG2DC2     9   180.000000     4.602400     1
   CG331   CG2DC1   CG2DC2   CG2DC2     9   180.000000     2.928800     2
   CG331   CG2DC1   CG2DC2   CG2DC3     9   180.000000     4.602400     1
   CG331   CG2DC1   CG2DC2   CG2DC3     9   180.000000     2.928800     2
   CG331   CG2DC1   CG2DC2    NG2D1     9   180.000000     6.736240     1
   CG331   CG2DC1   CG2DC2    NG2D1     9     0.000000     0.000000     2
   CG331   CG2DC1   CG2DC2     HGA4     9   180.000000     4.184000     2
   CG331   CG2DC1   CG2DC3     HGA5     9   180.000000    21.756800     2
   CG331   CG2DC1    CG2O3    OG2D2     9   180.000000     4.048438     2
   CG331   CG2DC1    CG2O3    OG2D2     9     0.000000     6.854229     3
   CG331   CG2DC1    CG2O3    OG2D2     9     0.000000     0.000418     6
   CG331   CG2DC1    CG2O5   CG2DC1     9   180.000000     0.005021     2
   CG331   CG2DC1    CG2O5    OG2D3     9   180.000000     3.782754     2
   CG331   CG2DC1   CG2R53   NG2R50     9   180.000000     2.098694     2
   CG331   CG2DC1   CG2R53   NG2R50     9   180.000000     1.885729     3
   CG331   CG2DC1   CG2R53   NG2R50     9     0.000000     0.399154     6
   CG331   CG2DC1   CG2R53   NG2R51     9   180.000000     3.991118     2
   CG331   CG2DC1   CG2R53   NG2R51     9     0.000000     2.622113     4
   CG331   CG2DC1   CG2R61   CG2R61     9   180.000000     6.527040     2
   CG331   CG2DC1   CG2R61   CG2R61     9   180.000000     1.631760     4
   CG331   CG2DC1   CG2R61   CG2R66     9   180.000000     1.715440     2
   CG331   CG2DC1   CG2R61   CG2R66     9     0.000000     0.000000     4
   CG331   CG2DC1   CG2R61   CG2R66     9     0.000000     0.000000     6
   CG331   CG2DC1   CG2R61   NG2R60     9   180.000000     1.924640     2
   CG331   CG2DC1   CG2R61   NG2R60     9   180.000000     2.594080     3
   CG331   CG2DC1   CG2R61   NG2R60     9     0.000000     0.083680     6
   CG331   CG2DC1   CG2R61   NG2RC0     9   180.000000     1.548080     2
   CG331   CG2DC1   CG2R61   NG2RC0     9     0.000000     1.715440     4
   CG331   CG2DC1   CG2R61   NG2RC0     9     0.000000     0.125520     6
   CG331   CG2DC1    CG321    CG311     9     0.000000     0.794960     3
   CG331   CG2DC1    CG321    CG321     9     0.000000     0.794960     3
   CG331   CG2DC1    CG321   OG3R60     9     0.000000     0.000000     2
   CG331   CG2DC1    CG321   OG3R60     9   180.000000     3.723760     3
   CG331   CG2DC1    CG321    SG311     9   180.000000     1.422560     2
   CG331   CG2DC1    CG321    SG311     9     0.000000     0.920480     3
   CG331   CG2DC1    CG321     HGA2     9     0.000000     0.794960     3
   CG331   CG2DC1    CG331     HGA3     9     0.000000     1.255200     3
   CG331   CG2DC1    NG2D1    CG2O1     9     0.000000    24.888942     1
   CG331   CG2DC1    NG2D1    CG2O1     9   180.000000    27.708122     2
   CG331   CG2DC1    NG2D1    CG2O6     9     0.000000    24.894800     1
   CG331   CG2DC1    NG2D1    CG2O6     9   180.000000    27.698080     2
   CG331   CG2DC1    NG2D1   CG2R61     9     0.000000     0.125520     1
   CG331   CG2DC1    NG2D1   CG2R61     9   180.000000    15.941040     2
   CG331   CG2DC1    NG2D1   CG2R64     9     0.000000     2.008320     1
   CG331   CG2DC1    NG2D1   CG2R64     9   180.000000    29.078800     2
   CG331   CG2DC1    NG2D1    CG321     9   180.000000    38.604094     2
   CG331   CG2DC1    NG2D1    CG331     9   180.000000    33.269494     2
   CG331   CG2DC1    NG2D1    NG2D1     9     0.000000     1.589920     1
   CG331   CG2DC1    NG2D1    NG2D1     9   180.000000    24.016160     2
   CG331   CG2DC1    NG2D1    NG2S1     9     0.000000     0.041840     1
   CG331   CG2DC1    NG2D1    NG2S1     9   180.000000    18.786160     2
   CG331   CG2DC1    NG2P1    CG324     9   180.000000    16.998755     2
   CG331   CG2DC2   CG2DC2    CG331     9   180.000000    41.840000     2
   CG331   CG2DC2   CG2DC2   CG3RC1     9   180.000000    29.748240     2
   CG331   CG2DC2   CG2DC2     HGA4     9   180.000000    21.756800     2
   CG331   CG2DC2   CG2DC3     HGA5     9   180.000000    21.756800     2
   CG331   CG2DC2    CG2O3    OG2D2     9   180.000000     4.048438     2
   CG331   CG2DC2    CG2O3    OG2D2     9     0.000000     6.854229     3
   CG331   CG2DC2    CG2O3    OG2D2     9     0.000000     0.000418     6
   CG331   CG2DC2    CG2O5   CG2DC2     9   180.000000     0.005021     2
   CG331   CG2DC2    CG2O5    OG2D3     9   180.000000     3.782754     2
   CG331   CG2DC2   CG2R53   NG2R50     9   180.000000     2.098694     2
   CG331   CG2DC2   CG2R53   NG2R50     9   180.000000     1.885729     3
   CG331   CG2DC2   CG2R53   NG2R50     9     0.000000     0.399154     6
   CG331   CG2DC2   CG2R53   NG2R51     9   180.000000     3.991118     2
   CG331   CG2DC2   CG2R53   NG2R51     9     0.000000     2.622113     4
   CG331   CG2DC2   CG2R61   CG2R61     9   180.000000     6.527040     2
   CG331   CG2DC2   CG2R61   CG2R61     9   180.000000     1.631760     4
   CG331   CG2DC2   CG2R61   CG2R66     9   180.000000     1.715440     2
   CG331   CG2DC2   CG2R61   CG2R66     9     0.000000     0.000000     4
   CG331   CG2DC2   CG2R61   CG2R66     9     0.000000     0.000000     6
   CG331   CG2DC2   CG2R61   NG2R60     9   180.000000     1.924640     2
   CG331   CG2DC2   CG2R61   NG2R60     9   180.000000     2.594080     3
   CG331   CG2DC2   CG2R61   NG2R60     9     0.000000     0.083680     6
   CG331   CG2DC2   CG2R61   NG2RC0     9   180.000000     1.548080     2
   CG331   CG2DC2   CG2R61   NG2RC0     9     0.000000     1.715440     4
   CG331   CG2DC2   CG2R61   NG2RC0     9     0.000000     0.125520     6
   CG331   CG2DC2    CG321    CG311     9     0.000000     0.794960     3
   CG331   CG2DC2    CG321    CG321     9     0.000000     0.794960     3
   CG331   CG2DC2    CG321   OG3R60     9     0.000000     0.000000     2
   CG331   CG2DC2    CG321   OG3R60     9   180.000000     3.723760     3
   CG331   CG2DC2    CG321    SG311     9   180.000000     1.422560     2
   CG331   CG2DC2    CG321    SG311     9     0.000000     0.920480     3
   CG331   CG2DC2    CG321     HGA2     9     0.000000     0.794960     3
   CG331   CG2DC2    CG331     HGA3     9     0.000000     1.255200     3
   CG331   CG2DC2    NG2D1    CG2O1     9     0.000000    24.888942     1
   CG331   CG2DC2    NG2D1    CG2O1     9   180.000000    27.708122     2
   CG331   CG2DC2    NG2D1    CG2O6     9     0.000000    24.894800     1
   CG331   CG2DC2    NG2D1    CG2O6     9   180.000000    27.698080     2
   CG331   CG2DC2    NG2D1   CG2R61     9     0.000000     0.125520     1
   CG331   CG2DC2    NG2D1   CG2R61     9   180.000000    15.941040     2
   CG331   CG2DC2    NG2D1   CG2R64     9     0.000000     2.008320     1
   CG331   CG2DC2    NG2D1   CG2R64     9   180.000000    29.078800     2
   CG331   CG2DC2    NG2D1    CG321     9   180.000000    38.604094     2
   CG331   CG2DC2    NG2D1    CG331     9   180.000000    33.269494     2
   CG331   CG2DC2    NG2D1    NG2D1     9     0.000000     1.589920     1
   CG331   CG2DC2    NG2D1    NG2D1     9   180.000000    24.016160     2
   CG331   CG2DC2    NG2D1    NG2S1     9     0.000000     0.041840     1
   CG331   CG2DC2    NG2D1    NG2S1     9   180.000000    18.786160     2
   CG331   CG2DC2    NG2P1    CG324     9   180.000000    16.998755     2
   CG331    CG2N2    NG2D1   CG2DC1     9   180.000000     0.000000     1
   CG331    CG2N2    NG2D1   CG2DC1     9   180.000000    12.844880     2
   CG331    CG2N2    NG2D1   CG2DC2     9   180.000000     0.000000     1
   CG331    CG2N2    NG2D1   CG2DC2     9   180.000000    12.844880     2
   CG331    CG2N2    NG2D1    SG3O3     9     0.000000     0.125520     1
   CG331    CG2N2    NG2D1    SG3O3     9   180.000000     9.790560     2
   CG331    CG2N2    NG2D1    SG3O3     9     0.000000     1.673600     3
   CG331    CG2N2    NG2P1     HGP2     9   180.000000    14.644000     2
   CG331    CG2O1    NG2D1   CG2DC1     9   180.000000     4.847582     1
   CG331    CG2O1    NG2D1   CG2DC1     9     0.000000     6.292318     2
   CG331    CG2O1    NG2D1   CG2DC2     9   180.000000     4.847582     1
   CG331    CG2O1    NG2D1   CG2DC2     9     0.000000     6.292318     2
   CG331    CG2O1    NG2D1   CG2R61     9   180.000000    16.032670     1
   CG331    CG2O1    NG2D1   CG2R61     9   180.000000     8.311516     2
   CG331    CG2O1    NG2D1   CG2R61     9     0.000000     4.077308     3
   CG331    CG2O1    NG2D1   CG2R61     9     0.000000     7.331623     4
   CG331    CG2O1    NG2D1   CG2R61     9   180.000000     5.484387     5
   CG331    CG2O1    NG2D1   CG2R61     9     0.000000     2.010412     6
   CG331    CG2O1    NG2D1    CG321     9   180.000000    14.607599     1
   CG331    CG2O1    NG2D1    CG321     9   180.000000    16.027649     2
   CG331    CG2O1    NG2D1    CG321     9     0.000000     9.766711     3
   CG331    CG2O1    NG2D1    CG331     9   180.000000    14.607599     1
   CG331    CG2O1    NG2D1    CG331     9   180.000000    16.027649     2
   CG331    CG2O1    NG2D1    CG331     9     0.000000     9.766711     3
   CG331    CG2O1   NG2R52   CG2R53     9   180.000000     7.782240     1
   CG331    CG2O1   NG2R52   CG2R53     9     0.000000     0.753120     2
   CG331    CG2O1   NG2R52   CG2R53     9     0.000000    17.740160     3
   CG331    CG2O1   NG2R52   CG2R53     9     0.000000     2.092000     4
   CG331    CG2O1   NG2R52   CG2R53     9     0.000000     0.125520     5
   CG331    CG2O1   NG2R52   CG2R53     9     0.000000     1.757280     6
   CG331    CG2O1   NG2R52   CG3C54     9     0.000000     1.213360     1
   CG331    CG2O1   NG2R52   CG3C54     9   180.000000    18.200400     2
   CG331    CG2O1   NG2R52   CG3C54     9     0.000000    13.305120     3
   CG331    CG2O1   NG2R53   CG2R53     9   180.000000     0.836800     1
   CG331    CG2O1   NG2R53   CG2R53     9     0.000000     0.083680     2
   CG331    CG2O1   NG2R53   CG2RC0     9     0.000000    13.388800     1
   CG331    CG2O1   NG2R53   CG2RC0     9   180.000000     6.945440     2
   CG331    CG2O1    NG2S0   CG2R61     9     0.000000     6.694400     1
   CG331    CG2O1    NG2S0   CG2R61     9   180.000000    10.460000     2
   CG331    CG2O1    NG2S0   CG2R64     9     0.000000     6.694400     1
   CG331    CG2O1    NG2S0   CG2R64     9   180.000000    10.460000     2
   CG331    CG2O1    NG2S0   CG2RC0     9     0.000000     6.694400     1
   CG331    CG2O1    NG2S0   CG2RC0     9   180.000000    10.460000     2
   CG331    CG2O1    NG2S0    CG301     9   180.000000    10.878400     2
   CG331    CG2O1    NG2S0    CG311     9   180.000000    10.878400     2
   CG331    CG2O1    NG2S0    CG321     9   180.000000    10.878400     2
   CG331    CG2O1    NG2S0    CG331     9   180.000000    10.878400     2
   CG331    CG2O1    NG2S0   CG3C50     9   180.000000    11.506000     2
   CG331    CG2O1    NG2S0   CG3C50     9     0.000000     1.255200     4
   CG331    CG2O1    NG2S0   CG3C51     9   180.000000    11.506000     2
   CG331    CG2O1    NG2S0   CG3C51     9     0.000000     1.255200     4
   CG331    CG2O1    NG2S0   CG3C52     9   180.000000    11.506000     2
   CG331    CG2O1    NG2S0   CG3C52     9     0.000000     1.255200     4
   CG331    CG2O1    NG2S0   CG3RC1     9   180.000000    11.506000     2
   CG331    CG2O1    NG2S0   CG3RC1     9     0.000000     1.255200     4
   CG331    CG2O1    NG2S0    OG301     9   180.000000     0.585760     1
   CG331    CG2O1    NG2S0    OG301     9   180.000000    17.405440     2
   CG331    CG2O1    NG2S1   CG2D1O     9     0.000000     6.586034     1
   CG331    CG2O1    NG2S1   CG2D1O     9   180.000000     0.217568     2
   CG331    CG2O1    NG2S1   CG2D2O     9     0.000000     6.586034     1
   CG331    CG2O1    NG2S1   CG2D2O     9   180.000000     0.217568     2
   CG331    CG2O1    NG2S1   CG2R61     9     0.000000     6.694400     1
   CG331    CG2O1    NG2S1   CG2R61     9   180.000000    10.460000     2
   CG331    CG2O1    NG2S1   CG2R64     9     0.000000     6.694400     1
   CG331    CG2O1    NG2S1   CG2R64     9   180.000000    10.460000     2
   CG331    CG2O1    NG2S1    CG311     9     0.000000     6.694400     1
   CG331    CG2O1    NG2S1    CG311     9   180.000000    10.460000     2
   CG331    CG2O1    NG2S1    CG321     9     0.000000     6.694400     1
   CG331    CG2O1    NG2S1    CG321     9   180.000000    10.460000     2
   CG331    CG2O1    NG2S1    CG331     9     0.000000     6.694400     1
   CG331    CG2O1    NG2S1    CG331     9   180.000000    10.460000     2
   CG331    CG2O1    NG2S1   CG3C51     9     0.000000     6.694400     1
   CG331    CG2O1    NG2S1   CG3C51     9   180.000000    10.460000     2
   CG331    CG2O1    NG2S1    NG2D1     9     0.000000     3.765600     1
   CG331    CG2O1    NG2S1    NG2D1     9   180.000000    14.644000     2
   CG331    CG2O1    NG2S1     HGP1     9   180.000000    10.460000     2
   CG331    CG2O1    NG2S2     HGP1     9   180.000000     5.857600     2
   CG331    CG2O1      NH1        H     9   180.000000    10.460000     2
   CG331    CG2O1      NH1      CT1     9     0.000000     6.694400     1
   CG331    CG2O1      NH1      CT1     9   180.000000    10.460000     2
   CG331    CG2O2    OG302    CG311     9   180.000000     8.577200     2
   CG331    CG2O2    OG302    CG321     9   180.000000     8.577200     2
   CG331    CG2O2    OG302    CG331     9   180.000000     8.577200     2
   CG331    CG2O2    OG311     HGP1     9   180.000000     8.577200     2
   CG331    CG2O2    SG311    CG321     9     0.000000     2.490735     1
   CG331    CG2O2    SG311    CG321     9   180.000000    12.245313     2
   CG331    CG2O5   CG2R51   CG2R53     9   180.000000     9.079280     2
   CG331    CG2O5   CG2R51   CG2RC7     9     0.000000     0.000000     2
   CG331    CG2O5   CG2R53   NG2R50     9     0.000000     0.000000     2
   CG331    CG2O5   CG2R53   SG2R50     9   180.000000    10.794720     2
   CG331    CG2O5   CG2R61   CG2R61     9   180.000000     1.046000     2
   CG331    CG2O5   CG2R61   CG2RC0     9   180.000000     1.046000     2
   CG331    CG2O5   CG2R61   NG2R60     9   180.000000    15.731840     2
   CG331    CG2O5   CG2R62   CG2R62     9   180.000000     1.046000     2
   CG331    CG2O5   CG2R62   CG2R63     9   180.000000     1.046000     2
   CG331    CG2O5    CG301    CG321     9     0.000000     0.334720     1
   CG331    CG2O5    CG301    CG321     9   180.000000     3.723760     2
   CG331    CG2O5    CG301    CG321     9     0.000000     0.460240     3
   CG331    CG2O5    CG301    CG321     9   180.000000     0.334720     6
   CG331    CG2O5    CG301    CG331     9   180.000000     0.962320     1
   CG331    CG2O5    CG301    CG331     9   180.000000     0.376560     2
   CG331    CG2O5    CG301    CG331     9     0.000000    11.045760     3
   CG331    CG2O5    CG301    CG331     9   180.000000     0.962320     6
   CG331    CG2O5    CG311    CG301     9     0.000000     3.138000     1
   CG331    CG2O5    CG311    CG301     9   180.000000     0.753120     2
   CG331    CG2O5    CG311    CG301     9     0.000000     0.292880     3
   CG331    CG2O5    CG311    CG301     9     0.000000     0.125520     6
   CG331    CG2O5    CG311    CG321     9     0.000000     3.138000     1
   CG331    CG2O5    CG311    CG321     9   180.000000     0.753120     2
   CG331    CG2O5    CG311    CG321     9     0.000000     0.292880     3
   CG331    CG2O5    CG311    CG321     9     0.000000     0.125520     6
   CG331    CG2O5    CG311     HGA1     9     0.000000     0.418400     3
   CG331    CG2O5    CG321    CG321     9     0.000000     3.138000     1
   CG331    CG2O5    CG321    CG321     9   180.000000     0.753120     2
   CG331    CG2O5    CG321    CG321     9     0.000000     0.271960     3
   CG331    CG2O5    CG321    CG321     9     0.000000     0.125520     6
   CG331    CG2O5    CG321    CG331     9     0.000000     3.138000     1
   CG331    CG2O5    CG321    CG331     9   180.000000     0.753120     2
   CG331    CG2O5    CG321    CG331     9     0.000000     0.271960     3
   CG331    CG2O5    CG321    CG331     9     0.000000     0.125520     6
   CG331    CG2O5    CG321    SG311     9     0.000000     6.885190     1
   CG331    CG2O5    CG321    SG311     9   180.000000     3.999904     2
   CG331    CG2O5    CG321    SG311     9     0.000000     0.558146     3
   CG331    CG2O5    CG321     HGA2     9     0.000000     0.418400     3
   CG331    CG2O5    CG331     HGA3     9     0.000000     0.418400     3
   CG331   CG2R51   CG2R51    CG331     9   180.000000     2.092000     2
   CG331   CG2R51   CG2R51   CG3C31     9   180.000000     2.092000     2
   CG331   CG2R51   CG2R51   CG3C50     9   180.000000    29.528998     2
   CG331   CG2R51   CG2R51   CG3C51     9   180.000000    25.229102     2
   CG331   CG2R51   CG2R51   CG3C52     9   180.000000    25.229102     2
   CG331   CG2R51   CG2R51   CG3C54     9   180.000000    25.396880     2
   CG331   CG2R51   CG2R51   NG2R50     9   180.000000    12.552000     2
   CG331   CG2R51   CG2R51   NG2R51     9   180.000000    12.552000     2
   CG331   CG2R51   CG2R51   NG2R52     9   180.000000    10.460000     2
   CG331   CG2R51   CG2R51   NG2R53     9   180.000000    12.552000     2
   CG331   CG2R51   CG2R51   NG2R61     9     0.000000     0.083680     2
   CG331   CG2R51   CG2R51   NG2RC0     9   180.000000    17.991200     2
   CG331   CG2R51   CG2R51   OG2R50     9   180.000000    20.961840     2
   CG331   CG2R51   CG2R51    OG311     9   180.000000     0.225099     2
   CG331   CG2R51   CG2R51    OG312     9   180.000000     9.742026     2
   CG331   CG2R51   CG2R51   OG3C51     9   180.000000     8.409840     2
   CG331   CG2R51   CG2R51   OG3R60     9   180.000000     2.928800     2
   CG331   CG2R51   CG2R51   SG2R50     9   180.000000    28.249113     2
   CG331   CG2R51   CG2R51    SG3O1     9   180.000000     9.623200     2
   CG331   CG2R51   CG2R51    HGR51     9   180.000000     4.184000     2
   CG331   CG2R51   CG2R51    HGR52     9   180.000000     4.184000     2
   CG331   CG2R51   CG2R52   CG2R61     9     0.000000     1.422560     2
   CG331   CG2R51   CG2R52    CG331     9     0.000000     0.000000     2
   CG331   CG2R51   CG2R52   NG2R50     9   180.000000    21.045520     2
   CG331   CG2R51   CG2R52    HGR52     9   180.000000     4.184000     2
   CG331   CG2R51   CG2R53   NG2R52     9   180.000000     3.849280     2
   CG331   CG2R51   CG2R53    OG2D1     9     0.000000     4.142160     2
   CG331   CG2R51   CG2R53   OG3C51     9     0.000000     3.305360     2
   CG331   CG2R51   CG2R57   CG2R52     9   180.000000    14.560320     2
   CG331   CG2R51   CG2R57   CG3C53     9     0.000000     1.924640     2
   CG331   CG2R51   CG2RC0   CG2R61     9   180.000000    10.460000     2
   CG331   CG2R51   CG2RC0   CG2R63     9   180.000000    10.460000     2
   CG331   CG2R51   CG2RC0   CG2R64     9   180.000000    10.460000     2
   CG331   CG2R51   CG2RC0   CG2R66     9   180.000000    10.460000     2
   CG331   CG2R51   CG2RC0   CG2RC0     9   180.000000    10.460000     2
   CG331   CG2R51   CG2RC0   NG2RC0     9   180.000000    20.417920     2
   CG331   CG2R51   CG3C50    CG331     9     0.000000     1.627994     3
   CG331   CG2R51   CG3C50   NG3C51     9   180.000000     2.669392     3
   CG331   CG2R51   CG3C51   CG2R53     9   180.000000     5.230000     2
   CG331   CG2R51   CG3C51   CG2R53     9     0.000000     6.150480     3
   CG331   CG2R51   CG3C51   CG2RC0     9   180.000000    21.505760     2
   CG331   CG2R51   CG3C51   CG2RC0     9     0.000000     4.435040     3
   CG331   CG2R51   CG3C51    CG331     9     0.000000     1.631760     3
   CG331   CG2R51   CG3C51     HGA1     9   180.000000     4.602400     3
   CG331   CG2R51   CG3C52   CG2R51     9   180.000000    20.794480     2
   CG331   CG2R51   CG3C52   CG2R51     9     0.000000     5.606560     3
   CG331   CG2R51   CG3C52   CG2RC0     9     0.000000     0.000000     2
   CG331   CG2R51   CG3C52   CG2RC0     9     0.000000    21.171040     3
   CG331   CG2R51   CG3C52   CG3C52     9     0.000000     0.000000     2
   CG331   CG2R51   CG3C52   CG3C52     9     0.000000     7.154640     3
   CG331   CG2R51   CG3C52   OG3C51     9   180.000000    11.589680     2
   CG331   CG2R51   CG3C52   OG3C51     9     0.000000     5.522880     3
   CG331   CG2R51   CG3C52    SG3O2     9     0.000000     0.000000     2
   CG331   CG2R51   CG3C52    SG3O2     9   180.000000     0.000000     3
   CG331   CG2R51   CG3C52     HGA2     9   180.000000     4.602400     3
   CG331   CG2R51   CG3C54    NG3P2     9   180.000000    10.878400     2
   CG331   CG2R51   CG3C54    NG3P2     9     0.000000     3.179840     3
   CG331   CG2R51   CG3C54     HGA2     9   180.000000     4.602400     3
   CG331   CG2R51   NG2R50   CG2R53     9   180.000000    12.552000     2
   CG331   CG2R51   NG2R50   CG2RC0     9   180.000000    17.154400     2
   CG331   CG2R51   NG2R50   NG2R50     9   180.000000    11.882560     2
   CG331   CG2R51   NG2R51    CG2O1     9   180.000000     0.000000     2
   CG331   CG2R51   NG2R51    CG2O6     9   180.000000     0.000000     2
   CG331   CG2R51   NG2R51   CG2R51     9   180.000000    12.552000     2
   CG331   CG2R51   NG2R51   CG2R53     9   180.000000    12.552000     2
   CG331   CG2R51   NG2R51   CG2R64     9     0.000000     1.757280     2
   CG331   CG2R51   NG2R51   CG2RC0     9   180.000000    12.552000     2
   CG331   CG2R51   NG2R51    CG301     9     0.000000    12.844880     2
   CG331   CG2R51   NG2R51    CG311     9     0.000000    12.844880     2
   CG331   CG2R51   NG2R51    CG331     9     0.000000     4.518720     2
   CG331   CG2R51   NG2R51   NG2R50     9   180.000000    24.058000     2
   CG331   CG2R51   NG2R51   NG2R52     9   180.000000     9.204800     2
   CG331   CG2R51   NG2R51   OG2R50     9   180.000000    22.509920     2
   CG331   CG2R51   NG2R51     HGP1     9   180.000000     4.184000     2
   CG331   CG2R51   NG2R52   CG2R53     9   180.000000    10.460000     2
   CG331   CG2R51   NG2R52   CG3C53     9   180.000000    12.886720     2
   CG331   CG2R51   NG2R52   CG3C54     9   180.000000     9.916080     2
   CG331   CG2R51   NG2R52    OG311     9   180.000000    13.556160     2
   CG331   CG2R51   NG2R52    OG312     9   180.000000     8.075120     2
   CG331   CG2R51   NG2R52     HGP2     9   180.000000    12.552000     2
   CG331   CG2R51   NG2RC0   CG2R63     9   180.000000     2.928800     2
   CG331   CG2R51   NG2RC0   CG2RC0     9   180.000000     2.928800     2
   CG331   CG2R51   NG2RC0   NG2R61     9   180.000000    11.882560     2
   CG331   CG2R51   NG3C51    CG331     9   180.000000     4.100320     2
   CG331   CG2R51   NG3C51   CG3C52     9   180.000000    16.777840     2
   CG331   CG2R51    NG3P1    CG334     9   180.000000     0.041840     2
   CG331   CG2R51    NG3P1    CG334     9     0.000000     2.761440     3
   CG331   CG2R51    NG3P1   CG3C54     9   180.000000     0.627600     2
   CG331   CG2R51    NG3P1   CG3C54     9     0.000000     1.004160     3
   CG331   CG2R51    NG3P1     HGP2     9     0.000000     4.225840     2
   CG331   CG2R51    NG3P1     HGP2     9   180.000000     1.046000     3
   CG331   CG2R51   OG2R50   CG2R51     9   180.000000    13.221440     2
   CG331   CG2R51   OG2R50   CG2R57     9   180.000000    13.221440     2
   CG331   CG2R51   OG2R50   CG2RC0     9   180.000000    13.221440     2
   CG331   CG2R51   OG2R50   NG2R50     9   180.000000    25.731600     2
   CG331   CG2R51   OG3C51   CG3C51     9   180.000000     5.062640     2
   CG331   CG2R51   OG3C51   NG3C51     9   180.000000    14.802155     2
   CG331   CG2R51   SG2R50   CG2R51     9   180.000000    10.634891     2
   CG331   CG2R51   SG2R50   CG2R53     9   180.000000    10.627360     2
   CG331   CG2R51   SG2R50   CG2RC0     9   180.000000     8.451680     2
   CG331   CG2R51   SG2R50   NG2R50     9   180.000000    20.710800     2
   CG331   CG2R51   SG2R50   SG2R50     9   180.000000    18.493280     2
   CG331   CG2R52   CG2R52   NG2R50     9   180.000000    12.552000     2
   CG331   CG2R52   CG2R52    HGR52     9   180.000000     1.297040     2
   CG331   CG2R52   CG2R57   CG2R51     9   180.000000    16.275760     2
   CG331   CG2R52   CG2R57   CG2R57     9   180.000000     5.899440     2
   CG331   CG2R52   CG2R57   CG3C53     9   180.000000    11.045760     2
   CG331   CG2R52   CG2R57   NG2R50     9     0.000000     0.000000     2
   CG331   CG2R52   CG2R57   NG2R57     9     0.000000     1.046000     2
   CG331   CG2R52   CG2RC0   CG2R61     9   180.000000    10.460000     2
   CG331   CG2R52   CG2RC0   CG2R62     9   180.000000    10.460000     2
   CG331   CG2R52   CG2RC0   CG2RC0     9   180.000000    10.460000     2
   CG331   CG2R52   CG2RC0   NG2R62     9     0.000000     1.255200     2
   CG331   CG2R52   CG3C41   CG2R53     9     0.000000     0.251040     1
   CG331   CG2R52   CG3C41   CG2R53     9   180.000000    24.769280     2
   CG331   CG2R52   CG3C41   CG3C41     9   180.000000     0.502080     2
   CG331   CG2R52   CG3C41   CG3C41     9   180.000000     2.343040     3
   CG331   CG2R52   CG3C50   CG2R53     9     0.000000     0.167360     2
   CG331   CG2R52   CG3C50   CG2R53     9     0.000000     1.380720     3
   CG331   CG2R52   CG3C50   CG2RC0     9   180.000000    11.422320     2
   CG331   CG2R52   CG3C50   CG2RC0     9     0.000000     2.343040     3
   CG331   CG2R52   CG3C50    CG321     9     0.000000     1.631760     3
   CG331   CG2R52   CG3C50    CG331     9     0.000000     1.631760     3
   CG331   CG2R52   CG3C51   CG2R53     9   180.000000    28.325680     2
   CG331   CG2R52   CG3C51   CG2R53     9     0.000000     0.167360     3
   CG331   CG2R52   CG3C51    CG331     9   180.000000     5.271840     2
   CG331   CG2R52   CG3C51    CG331     9   180.000000     1.004160     3
   CG331   CG2R52   CG3C51     HGA1     9   180.000000     4.602400     3
   CG331   CG2R52   CG3C52   CG3C50     9   180.000000    36.400800     2
   CG331   CG2R52   CG3C52   CG3C50     9     0.000000    14.058240     3
   CG331   CG2R52   CG3C52   CG3C52     9     0.000000     0.000000     2
   CG331   CG2R52   CG3C52   CG3C52     9     0.000000    13.932720     3
   CG331   CG2R52   CG3C52     HGA2     9   180.000000     4.602400     3
   CG331   CG2R52   CG3C54   NG2R52     9   180.000000     7.698560     2
   CG331   CG2R52   CG3C54   NG2R52     9     0.000000    17.112560     3
   CG331   CG2R52   CG3C54     HGA2     9   180.000000     4.602400     3
   CG331   CG2R52   NG2R50   CG2R53     9   180.000000    12.552000     2
   CG331   CG2R52   NG2R50   CG2RC0     9   180.000000    17.154400     2
   CG331   CG2R52   NG2R50   CG3C52     9   180.000000    25.647920     2
   CG331   CG2R52   NG2R50   NG2R50     9   180.000000    19.330080     2
   CG331   CG2R52   NG2R50   NG2R51     9   180.000000    19.037200     2
   CG331   CG2R52   NG2R50   NG2R53     9   180.000000    15.899200     2
   CG331   CG2R52   NG2R50   NG2RC0     9   180.000000    15.899200     2
   CG331   CG2R52   NG2R50    NG2S0     9   180.000000    12.091760     2
   CG331   CG2R52   NG2R50   OG2R50     9   180.000000    31.087120     2
   CG331   CG2R52   NG2R50   OG3C51     9   180.000000    21.798640     2
   CG331   CG2R52   NG2R50    SG3O2     9   180.000000    20.125040     2
   CG331   CG2R53   NG2R50   CG251O     9   180.000000     0.677808     2
   CG331   CG2R53   NG2R50   CG252O     9   180.000000     0.677808     2
   CG331   CG2R53   NG2R50   CG2R51     9   180.000000    20.576075     2
   CG331   CG2R53   NG2R50   CG2R53     9   180.000000    20.585280     2
   CG331   CG2R53   NG2R50   CG2RC0     9   180.000000    23.012000     2
   CG331   CG2R53   NG2R50   CG3C41     9   180.000000    49.371200     2
   CG331   CG2R53   NG2R50   CG3C51     9   180.000000    36.610000     2
   CG331   CG2R53   NG2R50   CG3C52     9   180.000000    19.371920     2
   CG331   CG2R53   NG2R50   NG2R50     9   180.000000    29.288000     2
   CG331   CG2R53   NG2R50   NG2R51     9   180.000000    23.806960     2
   CG331   CG2R53   NG2R50   OG2R50     9   180.000000     5.397360     2
   CG331   CG2R53   NG2R50   SG2R50     9   180.000000    28.493040     2
   CG331   CG2R53   NG2R51   CG2R51     9   180.000000    13.786280     2
   CG331   CG2R53   NG2R51   CG2R53     9   180.000000    29.568746     2
   CG331   CG2R53   NG2R51   CG2RC0     9   180.000000    23.012000     2
   CG331   CG2R53   NG2R51    CG311     9   180.000000    16.443120     2
   CG331   CG2R53   NG2R51    CG321     9   180.000000     0.017154     2
   CG331   CG2R53   NG2R51    CG322     9   180.000000     5.188160     2
   CG331   CG2R53   NG2R51    CG331     9   180.000000    12.552000     2
   CG331   CG2R53   NG2R51   CG3C51     9   180.000000     8.451680     2
   CG331   CG2R53   NG2R51   CG3C52     9   180.000000     9.874240     2
   CG331   CG2R53   NG2R51   NG2R50     9   180.000000    20.920000     2
   CG331   CG2R53   NG2R51    NG3N1     9     0.000000     3.765600     2
   CG331   CG2R53   NG2R51    OG311     9   180.000000     3.472720     2
   CG331   CG2R53   NG2R51     HGP1     9   180.000000     4.184000     2
   CG331   CG2R53   NG2R51     CN7B     9   180.000000    12.552000     2
   CG331   CG2R53   NG2R52   CG2R51     9   180.000000     7.623666     2
   CG331   CG2R53   NG2R52   CG2R61     9     0.000000     2.092000     2
   CG331   CG2R53   NG2R52   CG2R64     9     0.000000     6.736240     2
   CG331   CG2R53   NG2R52   CG2RC0     9   180.000000     7.614880     2
   CG331   CG2R53   NG2R52    CG324     9     0.000000     1.380720     2
   CG331   CG2R53   NG2R52    CG334     9     0.000000     0.209200     2
   CG331   CG2R53   NG2R52   CG3C31     9     0.000000     0.000000     2
   CG331   CG2R53   NG2R52   CG3C50     9   180.000000    16.443120     2
   CG331   CG2R53   NG2R52   CG3C53     9   180.000000     5.271840     2
   CG331   CG2R53   NG2R52   CG3C54     9   180.000000    13.388800     2
   CG331   CG2R53   NG2R52   NG2R50     9   180.000000     9.455840     2
   CG331   CG2R53   NG2R52    NG3N1     9   180.000000     2.594080     2
   CG331   CG2R53   NG2R52     HGP2     9   180.000000     3.878568     2
   CG331   CG2R53   NG3C51   OG3C51     9     0.000000     0.209200     2
   CG331   CG2R53   NG3C51     HGP1     9     0.000000     6.568880     2
   CG331   CG2R53   NG3C51     HGP1     9   180.000000     0.878640     3
   CG331   CG2R53   OG2R50   CG2R51     9   180.000000    28.785920     2
   CG331   CG2R53   OG2R50   CG2R53     9   180.000000    26.903120     2
   CG331   CG2R53   OG2R50   CG2R57     9   180.000000    25.229520     2
   CG331   CG2R53   OG2R50   CG2RC0     9   180.000000    29.831920     2
   CG331   CG2R53   OG2R50   NG2R50     9   180.000000     3.891120     2
   CG331   CG2R53   OG3C51   CG2R53     9     0.000000     0.669440     2
   CG331   CG2R53   OG3C51   CG3C52     9   180.000000    28.534880     2
   CG331   CG2R53   SG2R50   NG2R50     9   180.000000    25.187680     2
   CG331   CG2R61   CG2R61    CG331     9   180.000000    10.041600     2
   CG331   CG2R61   CG2R61   CG3C53     9     0.000000     0.334720     2
   CG331   CG2R61   CG2R61    NG2D1     9     0.000000     0.000000     2
   CG331   CG2R61   CG2R61    NG2O1     9   180.000000    12.753669     2
   CG331   CG2R61   CG2R61   NG2R60     9   180.000000     4.184000     2
   CG331   CG2R61   CG2R61   NG2R61     9   180.000000    19.037200     2
   CG331   CG2R61   CG2R61   NG2R62     9   180.000000     4.184000     2
   CG331   CG2R61   CG2R61   NG2RC0     9   180.000000    17.070720     2
   CG331   CG2R61   CG2R61    NG2S1     9   180.000000    10.041600     2
   CG331   CG2R61   CG2R61    NG2S3     9   180.000000    10.041600     2
   CG331   CG2R61   CG2R61    NG3P1     9   180.000000     6.819920     2
   CG331   CG2R61   CG2R61    OG301     9   180.000000    10.041600     2
   CG331   CG2R61   CG2R61    OG311     9   180.000000    10.041600     2
   CG331   CG2R61   CG2R61    OG312     9   180.000000    10.501840     2
   CG331   CG2R61   CG2R61   OG3R60     9   180.000000    10.041600     2
   CG331   CG2R61   CG2R61    SG302     9   180.000000     5.690240     2
   CG331   CG2R61   CG2R61    SG3O1     9   180.000000     8.828240     2
   CG331   CG2R61   CG2R61    SG3O3     9   180.000000     4.811600     2
   CG331   CG2R61   CG2R61    CLGR1     9   180.000000    14.936880     2
   CG331   CG2R61   CG2R61    HGR61     9   180.000000    10.041600     2
   CG331   CG2R61   CG2R61    HGR62     9   180.000000    10.041600     2
   CG331   CG2R61   CG2R62   CG2R62     9   180.000000    12.970400     2
   CG331   CG2R61   CG2R62   CG2R63     9   180.000000    12.970400     2
   CG331   CG2R61   CG2R63   NG2R61     9   180.000000    11.213120     2
   CG331   CG2R61   CG2R63    SG2D1     9   180.000000     9.162960     2
   CG331   CG2R61   CG2R64   NG2R60     9     0.000000     0.000000     2
   CG331   CG2R61   CG2R64   NG2R61     9   180.000000    10.167120     2
   CG331   CG2R61   CG2R64   NG2R62     9   180.000000    14.602160     2
   CG331   CG2R61   CG2R64    NG2S3     9   180.000000    16.945200     2
   CG331   CG2R61   CG2R66   CG2R61     9   180.000000    12.970400     2
   CG331   CG2R61   CG2R66   CG2R64     9   180.000000    12.970400     2
   CG331   CG2R61   CG2R66   CG2R66     9   180.000000    12.970400     2
   CG331   CG2R61   CG2R66   NG2RC0     9   180.000000    19.204560     2
   CG331   CG2R61   CG2R66     FGR1     9   180.000000    18.828000     2
   CG331   CG2R61   CG2R67   CG2R61     9   180.000000    10.250800     2
   CG331   CG2R61   CG2R67   CG2R64     9   180.000000     7.363840     2
   CG331   CG2R61   CG2R67   CG2R67     9   180.000000    14.100080     2
   CG331   CG2R61   CG2R67   NG2R67     9   180.000000    11.129440     2
   CG331   CG2R61   CG2RC0   CG25C1     9   180.000000     5.397360     2
   CG331   CG2R61   CG2RC0   CG25C2     9   180.000000     5.397360     2
   CG331   CG2R61   CG2RC0   CG2R51     9   180.000000     1.506240     2
   CG331   CG2R61   CG2RC0   CG2R67     9   180.000000     7.280160     2
   CG331   CG2R61   CG2RC0   CG2RC0     9   180.000000    14.518480     2
   CG331   CG2R61   CG2RC0   CG3C51     9   180.000000     3.389040     2
   CG331   CG2R61   CG2RC0   CG3C52     9   180.000000     3.681920     2
   CG331   CG2R61   CG2RC0   NG2R50     9   180.000000     5.564720     2
   CG331   CG2R61   CG2RC0   NG2R51     9     0.000000     0.920480     2
   CG331   CG2R61   CG2RC0   NG2RC0     9   180.000000    12.761200     2
   CG331   CG2R61   CG2RC0    NG2S0     9   180.000000    10.125280     2
   CG331   CG2R61   CG2RC0   NG3C51     9   180.000000     6.610720     2
   CG331   CG2R61   CG2RC0   OG2R50     9   180.000000    12.300960     2
   CG331   CG2R61   CG2RC0   SG2R50     9   180.000000     8.702720     2
   CG331   CG2R61   NG2R52   CG2R51     9   180.000000    20.250560     2
   CG331   CG2R61   NG2R52   CG2RC0     9   180.000000    27.698080     2
   CG331   CG2R61   NG2R52   CG3C54     9   180.000000     8.911920     2
   CG331   CG2R61   NG2R60   CG2R61     9   180.000000    12.970400     2
   CG331   CG2R61   NG2R60   CG2R62     9   180.000000    12.970400     2
   CG331   CG2R61   NG2R60   CG2R64     9   180.000000    12.970400     2
   CG331   CG2R61   NG2R61   CG2R61     9   180.000000     8.995600     2
   CG331   CG2R61   NG2R61   CG2R62     9   180.000000     9.246640     2
   CG331   CG2R61   NG2R61   CG2R64     9   180.000000     6.359680     2
   CG331   CG2R61   NG2R61     HGP1     9   180.000000     9.372160     2
   CG331   CG2R61   NG2R62   CG2R63     9   180.000000     0.000000     2
   CG331   CG2R61   NG2R62   CG2R64     9   180.000000    23.095680     2
   CG331   CG2R61   NG2R62   CG2RC0     9   180.000000    13.179600     2
   CG331   CG2R61   NG2R62   NG2R62     9   180.000000    29.873760     2
   CG331   CG2R61   NG2R62   NG2RC0     9   180.000000    34.225120     2
   CG331   CG2R61   OG3R60   CG2R61     9   180.000000    13.430640     2
   CG331   CG2R62   CG2R62   CG3C31     9   180.000000    19.288240     2
   CG331   CG2R62   CG2R62   NG2R61     9   180.000000    16.736000     2
   CG331   CG2R62   CG2R62   NG2R62     9   180.000000    37.656000     2
   CG331   CG2R62   CG2R62    NG2S3     9   180.000000    15.731840     2
   CG331   CG2R62   CG2R62    NG301     9   180.000000     9.330320     2
   CG331   CG2R62   CG2R62    NG3N1     9   180.000000     3.389040     2
   CG331   CG2R62   CG2R62    OG311     9   180.000000    11.213120     2
   CG331   CG2R62   CG2R62    OG312     9   180.000000    15.313440     2
   CG331   CG2R62   CG2R62    HGR62     9   180.000000    16.736000     2
   CG331   CG2R62   CG2R62    HGR63     9   180.000000    16.736000     2
   CG331   CG2R62   CG2R63   CG2R62     9   180.000000    14.225600     2
   CG331   CG2R62   CG2R63   NG2R61     9   180.000000    23.430400     2
   CG331   CG2R62   CG2R63   NG2R62     9   180.000000    37.656000     2
   CG331   CG2R62   CG2R63    OG2D4     9   180.000000     4.184000     2
   CG331   CG2R62   CG2R64    NG2P1     9   180.000000     4.184000     2
   CG331   CG2R62   CG2R64   NG2R62     9   180.000000     4.184000     2
   CG331   CG2R62   CG2R64    NG2S3     9   180.000000    10.041600     2
   CG331   CG2R62   CG2R66   NG2R61     9   180.000000    22.928320     2
   CG331   CG2R62   CG2R66     FGR1     9   180.000000    18.828000     2
   CG331   CG2R62   CG2RC0   CG2R52     9   180.000000     2.133840     2
   CG331   CG2R62   CG2RC0   CG2RC0     9     0.000000     1.840960     2
   CG331   CG2R62   CG2RC0   NG2R51     9   180.000000     5.439200     2
   CG331   CG2R62   NG2R60   CG2R62     9   180.000000    12.970400     2
   CG331   CG2R62   NG2R61   CG2R53     9   180.000000    16.610480     2
   CG331   CG2R62   NG2R61   CG2R62     9   180.000000    12.970400     2
   CG331   CG2R62   NG2R61   CG2R63     9   180.000000     3.598240     2
   CG331   CG2R62   NG2R61    CG314     9   180.000000     8.995600     2
   CG331   CG2R62   NG2R61    CG334     9   180.000000    15.690000     2
   CG331   CG2R62   NG2R61     HGP1     9   180.000000    14.644000     2
   CG331   CG2R62   NG2R61     HGP2     9   180.000000    13.598000     2
   CG331   CG2R62   NG2R62   CG2R64     9     0.000000     0.000000     2
   CG331   CG2R62   NG2R62   NG2R67     9   180.000000    40.250080     2
   CG331   CG2R62   NG2R62   NG2RC0     9   180.000000    35.940560     2
   CG331   CG2R62   NG2R67   CG2R62     9   180.000000    13.472480     2
   CG331   CG2R62   NG2R67   CG2R67     9   180.000000    11.966240     2
   CG331   CG2R64   NG2R52   CG2R53     9   180.000000    13.974560     2
   CG331   CG2R64   NG2R52   CG2RC0     9   180.000000     6.694400     2
   CG331   CG2R64   NG2R61   CG2R63     9   180.000000     2.719600     2
   CG331   CG2R64   NG2R61     HGP1     9   180.000000    12.803040     2
   CG331   CG2R64   NG2R62   CG2R61     9   180.000000    23.012000     2
   CG331   CG2R64   NG2R62   CG2R63     9   180.000000    23.012000     2
   CG331   CG2R64   NG2R62   CG2R64     9   180.000000    23.012000     2
   CG331   CG2R64   NG2R62   CG2RC0     9   180.000000    46.024000     2
   CG331   CG2R71    NG2D1   CG2R53     9     0.000000     0.000000     1
   CG331   CG2R71    NG2D1   CG2R53     9   180.000000    15.104240     2
   CG331   CG2R71    NG2D1   CG2R53     9     0.000000     0.334720     3
   CG331   CG2R71    NG2D1   CG2R53     9     0.000000     3.681920     4
   CG331   CG2R71    NG2D1   CG2R53     9   180.000000     1.087840     5
   CG331   CG2R71    NG2D1   CG2R53     9     0.000000     2.217520     6
   CG331   CG2R71    NG3N1    NG2S1     9   180.000000     1.255200     2
   CG331   CG2R71    NG3N1     HGP1     9     0.000000     0.376560     2
   CG331   CG2R71    NG3N1     HGP1     9     0.000000     2.008320     3
   CG331    CG301    CG301    CG331     9     0.000000     0.836800     3
   CG331    CG301    CG301    OG311     9     0.000000     0.585760     3
   CG331    CG301    CG311    CG2O1     9     0.000000     0.836800     3
   CG331    CG301    CG311    CG2O2     9     0.000000     0.836800     3
   CG331    CG301    CG311    CG2O5     9     0.000000     0.836800     3
   CG331    CG301    CG311   CG2R61     9     0.000000     0.292880     3
   CG331    CG301    CG311    CG301     9     0.000000     0.836800     3
   CG331    CG301    CG311    CG311     9     0.000000     0.836800     3
   CG331    CG301    CG311    CG321     9     0.000000     0.836800     3
   CG331    CG301    CG311    CG324     9   180.000000     2.970640     3
   CG331    CG301    CG311    CG331     9     0.000000     0.836800     3
   CG331    CG301    CG311   NG2R61     9   180.000000     3.054320     3
   CG331    CG301    CG311   NG2R61     9   180.000000     0.627600     4
   CG331    CG301    CG311    NG301     9     0.000000     1.673600     1
   CG331    CG301    CG311    NG301     9     0.000000     3.347200     3
   CG331    CG301    CG311    NG321     9     0.000000     1.673600     1
   CG331    CG301    CG311    NG321     9     0.000000     3.347200     3
   CG331    CG301    CG311    OG311     9     0.000000     0.585760     3
   CG331    CG301    CG311     HGA1     9     0.000000     0.815880     3
   CG331    CG301    CG312    CG321     9     0.000000     3.472720     3
   CG331    CG301    CG312     FGA2     9     0.000000     0.334720     1
   CG331    CG301    CG312     FGA2     9   180.000000     0.125520     3
   CG331    CG301    CG314    CG2O3     9     0.000000     0.836800     3
   CG331    CG301    CG314    CG301     9     0.000000     0.836800     3
   CG331    CG301    CG314    CG321     9     0.000000     0.836800     3
   CG331    CG301    CG314    CG331     9     0.000000     0.836800     3
   CG331    CG301    CG314    NG3P1     9     0.000000     0.836800     3
   CG331    CG301    CG314    NG3P2     9     0.000000     0.836800     3
   CG331    CG301    CG314    NG3P3     9     0.000000     0.836800     3
   CG331    CG301    CG314     HGA1     9     0.000000     0.836800     3
   CG331    CG301    CG321    CG2D1     9     0.000000     0.836800     3
   CG331    CG301    CG321    CG2O1     9     0.000000     0.836800     3
   CG331    CG301    CG321    CG2O2     9     0.000000     0.836800     3
   CG331    CG301    CG321    CG2O5     9     0.000000     0.836800     3
   CG331    CG301    CG321   CG2R51     9     0.000000     1.464400     3
   CG331    CG301    CG321   CG2R52     9     0.000000     1.046000     3
   CG331    CG301    CG321   CG2R52     9     0.000000     3.305360     6
   CG331    CG301    CG321   CG2R61     9     0.000000     0.167360     3
   CG331    CG301    CG321    CG301     9     0.000000     1.840960     1
   CG331    CG301    CG321    CG301     9   180.000000     0.083680     2
   CG331    CG301    CG321    CG301     9     0.000000     0.836800     3
   CG331    CG301    CG321    CG311     9     0.000000     0.836800     3
   CG331    CG301    CG321    CG321     9     0.000000     0.836800     3
   CG331    CG301    CG321    CG324     9     0.000000     0.836800     3
   CG331    CG301    CG321    CG331     9     0.000000     1.840960     1
   CG331    CG301    CG321    CG331     9   180.000000     0.083680     2
   CG331    CG301    CG321    CG331     9   180.000000     3.054320     3
   CG331    CG301    CG321   CG3RC1     9   180.000000     0.000000     3
   CG331    CG301    CG321    NG2S0     9     0.000000     1.464400     3
   CG331    CG301    CG321    NG2S1     9     0.000000     0.836800     3
   CG331    CG301    CG321    NG301     9     0.000000     0.836800     3
   CG331    CG301    CG321    NG311     9   180.000000     0.920480     3
   CG331    CG301    CG321    NG311     9   180.000000     0.878640     6
   CG331    CG301    CG321    OG303     9   180.000000     0.836800     3
   CG331    CG301    CG321    SG311     9   180.000000     5.230000     3
   CG331    CG301    CG321    SG3O3     9   180.000000     3.924592     1
   CG331    CG301    CG321    SG3O3     9     0.000000     1.606238     2
   CG331    CG301    CG321    SG3O3     9     0.000000     0.749354     3
   CG331    CG301    CG321     HGA2     9     0.000000     0.815880     3
   CG331    CG301    CG322    CG324     9   180.000000     0.920480     3
   CG331    CG301    CG322     FGA1     9     0.000000     1.046000     3
   CG331    CG301    CG322     HGA6     9     0.000000     1.046000     3
   CG331    CG301    CG324    NG3P1     9     0.000000     0.836800     3
   CG331    CG301    CG324    NG3P2     9     0.000000     0.836800     3
   CG331    CG301    CG324     HGA2     9     0.000000     0.836800     3
   CG331    CG301    CG331     HGA3     9     0.000000     0.669440     3
   CG331    CG301   CG3C50    CG331     9   180.000000     2.761440     3
   CG331    CG301   CG3C50   NG2R51     9     0.000000     5.397360     3
   CG331    CG301   CG3C50   NG2R51     9     0.000000     8.326160     4
   CG331    CG301   CG3C50   NG3C51     9     0.000000    24.685600     1
   CG331    CG301   CG3C50   NG3C51     9   180.000000    15.020560     2
   CG331    CG301   CG3C50   NG3C51     9     0.000000     1.840960     3
   CG331    CG301   CG3C51   CG2R53     9   180.000000     0.920480     3
   CG331    CG301   CG3C51   CG2R53     9   180.000000     0.753120     4
   CG331    CG301   CG3C51   CG3C51     9     0.000000     1.046000     1
   CG331    CG301   CG3C51   CG3C51     9     0.000000     1.046000     2
   CG331    CG301   CG3C51   CG3C51     9     0.000000     1.882800     3
   CG331    CG301   CG3C51   CG3C52     9     0.000000     1.046000     1
   CG331    CG301   CG3C51   CG3C52     9     0.000000     1.046000     2
   CG331    CG301   CG3C51   CG3C52     9     0.000000     1.882800     3
   CG331    CG301   CG3C51   NG2R53     9     0.000000     3.681920     3
   CG331    CG301   CG3C51   NG2R53     9   180.000000     0.460240     4
   CG331    CG301   CG3C51     HGA1     9     0.000000     0.836800     3
   CG331    CG301   CG3RC1   CG3C52     9   180.000000     2.092000     4
   CG331    CG301   CG3RC1   CG3C54     9   180.000000     1.171520     3
   CG331    CG301   CG3RC1   CG3C54     9   180.000000     0.125520     4
   CG331    CG301   CG3RC1   CG3RC1     9     0.000000     0.627600     3
   CG331    CG301   CG3RC1   OG3C51     9   180.000000     6.192320     3
   CG331    CG301   CG3RC1   OG3C51     9     0.000000     0.334720     4
   CG331    CG301   CG3RC1     HGA1     9     0.000000     0.627600     3
   CG331    CG301    NG2D1   CG2D1O     9     0.000000     0.000000     1
   CG331    CG301    NG2D1   CG2D1O     9   180.000000     0.711280     2
   CG331    CG301    NG2D1   CG2D1O     9   180.000000     4.727920     3
   CG331    CG301    NG2D1   CG2D1O     9   180.000000     2.133840     4
   CG331    CG301    NG2D1   CG2D1O     9   180.000000     0.167360     6
   CG331    CG301    NG2D1   CG2D2O     9     0.000000     0.000000     1
   CG331    CG301    NG2D1   CG2D2O     9   180.000000     0.711280     2
   CG331    CG301    NG2D1   CG2D2O     9   180.000000     4.727920     3
   CG331    CG301    NG2D1   CG2D2O     9   180.000000     2.133840     4
   CG331    CG301    NG2D1   CG2D2O     9   180.000000     0.167360     6
   CG331    CG301    NG2P1    CG2N2     9   180.000000     0.000000     6
   CG331    CG301    NG2P1     HGP2     9   180.000000     0.000000     6
   CG331    CG301   NG2R51   CG2R53     9     0.000000     0.502080     1
   CG331    CG301   NG2R51   CG2R53     9   180.000000     0.083680     2
   CG331    CG301   NG2R51   CG2R53     9   180.000000     0.125520     3
   CG331    CG301   NG2R51   CG2R53     9   180.000000     0.209200     4
   CG331    CG301   NG2R51   SG2R50     9     0.000000     0.292880     1
   CG331    CG301   NG2R51   SG2R50     9     0.000000     0.125520     2
   CG331    CG301   NG2R51   SG2R50     9   180.000000     4.644240     3
   CG331    CG301   NG2R51   SG2R50     9   180.000000     0.878640     4
   CG331    CG301   NG2R51   SG2R50     9     0.000000     1.338880     6
   CG331    CG301   NG2R53   CG2R53     9     0.000000    20.125040     1
   CG331    CG301   NG2R53   CG2R53     9     0.000000     7.447520     2
   CG331    CG301   NG2R53   CG2R53     9   180.000000     2.468560     3
   CG331    CG301   NG2R53   CG3C52     9   180.000000    11.882560     1
   CG331    CG301   NG2R53   CG3C52     9     0.000000     6.066800     2
   CG331    CG301   NG2R53   CG3C52     9   180.000000     0.292880     6
   CG331    CG301   NG2R53   CG3RC1     9   180.000000     7.782240     1
   CG331    CG301   NG2R53   CG3RC1     9     0.000000    13.765360     2
   CG331    CG301   NG2R53   CG3RC1     9     0.000000     0.669440     3
   CG331    CG301   NG2R61   CG2R63     9     0.000000     0.251040     1
   CG331    CG301   NG2R61   CG2R63     9   180.000000     0.627600     6
   CG331    CG301   NG2R61   NG2R61     9     0.000000     0.334720     1
   CG331    CG301   NG2R61   NG2R61     9   180.000000     0.376560     6
   CG331    CG301    NG2S0    CG2O1     9     0.000000     7.531200     1
   CG331    CG301    NG2S0   CG2R61     9     0.000000    14.267440     1
   CG331    CG301    NG2S0   CG2R61     9     0.000000     3.138000     3
   CG331    CG301    NG2S0    CG321     9     0.000000    12.803040     1
   CG331    CG301    NG2S0    CG321     9   180.000000     0.460240     2
   CG331    CG301    NG2S1    CG2O1     9     0.000000     7.531200     1
   CG331    CG301    NG2S1    CG2O6     9     0.000000     7.531200     1
   CG331    CG301    NG2S1     HGP1     9     0.000000     0.000000     1
   CG331    CG301    NG301    CG311     9   180.000000     0.000000     1
   CG331    CG301    NG301    CG311     9   180.000000     8.911920     2
   CG331    CG301    NG301    CG311     9     0.000000     5.983120     3
   CG331    CG301    NG301    CG311     9   180.000000     4.435040     6
   CG331    CG301    NG301    CG331     9   180.000000     4.225840     1
   CG331    CG301    NG301    CG331     9     0.000000     3.389040     2
   CG331    CG301    NG301    CG331     9   180.000000     0.878640     3
   CG331    CG301    NG301    CG331     9     0.000000     1.882800     6
   CG331    CG301    NG311   CG2R61     9   180.000000     1.171520     1
   CG331    CG301    NG311   CG2R61     9   180.000000     0.460240     3
   CG331    CG301    NG311   HGPAM1     9     0.000000     0.543920     2
   CG331    CG301    NG311   HGPAM1     9     0.000000     0.125520     3
   CG331    CG301    NG321   HGPAM2     9     0.000000     2.092000     1
   CG331    CG301    NG321   HGPAM2     9     0.000000     1.673600     3
   CG331    CG301    NG3P1    CG324     9     0.000000     2.008320     3
   CG331    CG301    NG3P1    CG334     9   180.000000     0.794960     3
   CG331    CG301    NG3P1     HGP2     9     0.000000     2.761440     3
   CG331    CG301    NG3P2    CG314     9     0.000000     0.418400     3
   CG331    CG301    NG3P2     HGP2     9     0.000000     0.418400     3
   CG331    CG301    NG3P3     HGP2     9     0.000000     0.418400     3
   CG331    CG301    OG301    CG321     9     0.000000     1.673600     1
   CG331    CG301    OG301    CG321     9     0.000000     2.050160     3
   CG331    CG301    OG301    CG331     9     0.000000     1.673600     1
   CG331    CG301    OG301    CG331     9     0.000000     2.050160     3
   CG331    CG301    OG302    CG2O2     9     0.000000     0.000000     3
   CG331    CG301    OG303      PG1     9   180.000000     1.673600     1
   CG331    CG301    OG303      PG1     9     0.000000     1.255200     2
   CG331    CG301    OG303      PG1     9     0.000000     0.418400     3
   CG331    CG301    OG311     HGP1     9     0.000000     4.727920     1
   CG331    CG301    OG311     HGP1     9     0.000000     0.585760     2
   CG331    CG301    OG311     HGP1     9     0.000000     1.004160     3
   CG331    CG301   OG3C61    CG301     9   180.000000     4.142160     1
   CG331    CG301   OG3C61    CG301     9   180.000000     2.719600     2
   CG331    CG301   OG3C61    CG301     9     0.000000     0.083680     3
   CG331    CG301   OG3C61    CG301     9     0.000000     0.083680     4
   CG331    CG301   OG3C61    CG301     9   180.000000     0.083680     6
   CG331    CG301   OG3C61    CG311     9   180.000000     2.217520     1
   CG331    CG301   OG3C61    CG311     9     0.000000     2.845120     2
   CG331    CG301   OG3C61    CG311     9   180.000000     0.878640     3
   CG331    CG301   OG3C61    CG311     9     0.000000     0.627600     4
   CG331    CG301   OG3C61    CG321     9   180.000000     2.217520     1
   CG331    CG301   OG3C61    CG321     9     0.000000     2.845120     2
   CG331    CG301   OG3C61    CG321     9   180.000000     0.878640     3
   CG331    CG301   OG3C61    CG321     9     0.000000     0.627600     4
   CG331    CG301   OG3C61    CG324     9   180.000000     0.083680     1
   CG331    CG301   OG3C61    CG324     9     0.000000     6.694400     2
   CG331    CG301   OG3C61    CG324     9     0.000000     0.920480     3
   CG331    CG301   OG3C61    CG324     9   180.000000     1.757280     4
   CG331    CG301   OG3C61   CG3RC1     9     0.000000     0.878640     1
   CG331    CG301   OG3C61   CG3RC1     9     0.000000     2.426720     2
   CG331    CG301   OG3C61   CG3RC1     9   180.000000     1.129680     3
   CG331    CG301   OG3C61   CG3RC1     9     0.000000     0.627600     4
   CG331    CG301   OG3C61   CG3RC1     9   180.000000     1.338880     6
   CG331    CG301   OG3R60   CG2D1O     9     0.000000     4.686080     2
   CG331    CG301   OG3R60   CG2D1O     9     0.000000     2.677760     3
   CG331    CG301   OG3R60   CG2D2O     9     0.000000     4.686080     2
   CG331    CG301   OG3R60   CG2D2O     9     0.000000     2.677760     3
   CG331    CG301   OG3R60   CG2R61     9     0.000000     0.125520     1
   CG331    CG301   OG3R60   CG2R61     9   180.000000     0.000000     2
   CG331    CG301   OG3R60   CG2R61     9     0.000000     0.209200     3
   CG331    CG301   OG3R60   CG2R61     9   180.000000     4.727920     4
   CG331    CG301    SG311   CG2R61     9     0.000000     0.753120     1
   CG331    CG301    SG311   CG2R61     9     0.000000     0.962320     2
   CG331    CG301    SG311   CG2R61     9   180.000000     1.840960     3
   CG331    CG301    SG311    CG321     9     0.000000     5.596937     1
   CG331    CG301    SG311    CG321     9     0.000000     1.071522     3
   CG331    CG301    SG311     HGP3     9     0.000000    50.454438     1
   CG331    CG301    SG311     HGP3     9     0.000000     8.644562     2
   CG331    CG301    SG311     HGP3     9     0.000000     0.946421     3
   CG331    CG301    SG3O3    CG321     9     0.000000     5.020800     1
   CG331    CG301    SG3O3    CG321     9     0.000000     0.376560     3
   CG331    CG301    SG3O3    CG321     9     0.000000     9.957920     6
   CG331    CG301    SG3O3    OG2P1     9   180.000000    15.146080     1
   CG331    CG301    SG3O3    OG2P1     9   180.000000     1.046000     2
   CG331    CG301    SG3O3    OG2P1     9   180.000000     3.096160     3
   CG331    CG301    SG3O3    OG2P1     9   180.000000    23.974320     6
   CG331    CG301      CT1        C     9     0.000000     0.836800     3
   CG331    CG311    CG311    CG331     9   180.000000     2.092000     4
   CG331    CG311    CG311   CG3C50     9     0.000000     0.627600     3
   CG331    CG311    CG311    NG2S0     9     0.000000     0.836800     3
   CG331    CG311    CG311    NG2S1     9     0.000000     0.836800     3
   CG331    CG311    CG311    NG301     9   180.000000     0.209200     1
   CG331    CG311    CG311    NG301     9   180.000000     1.464400     3
   CG331    CG311    CG311    NG311     9     0.000000     1.673600     1
   CG331    CG311    CG311    NG311     9     0.000000     3.347200     3
   CG331    CG311    CG311    NG321     9     0.000000     1.673600     1
   CG331    CG311    CG311    NG321     9     0.000000     3.347200     3
   CG331    CG311    CG311   NG3C51     9     0.000000     1.673600     1
   CG331    CG311    CG311   NG3C51     9     0.000000     3.347200     3
   CG331    CG311    CG311    OG311     9     0.000000     0.585760     3
   CG331    CG311    CG311   OG3C61     9   180.000000     0.794960     1
   CG331    CG311    CG311   OG3C61     9   180.000000     4.184000     2
   CG331    CG311    CG311   OG3C61     9     0.000000     2.510400     3
   CG331    CG311    CG311   OG3C61     9   180.000000     0.334720     4
   CG331    CG311    CG311    SG311     9     0.000000     0.836800     3
   CG331    CG311    CG311    SG3O3     9   180.000000     0.836800     1
   CG331    CG311    CG311    SG3O3     9   180.000000     0.836800     2
   CG331    CG311    CG311    SG3O3     9     0.000000     0.334720     3
   CG331    CG311    CG311     HGA1     9     0.000000     0.815880     3
   CG331    CG311    CG312    CG321     9   180.000000     0.167360     3
   CG331    CG311    CG312    CG324     9     0.000000     0.000000     3
   CG331    CG311    CG312    CG324     9     0.000000     4.560560     4
   CG331    CG311    CG312     FGA2     9   180.000000     3.179840     1
   CG331    CG311    CG312     FGA2     9     0.000000     1.338880     3
   CG331    CG311    CG314    CG2O1     9     0.000000     0.836800     3
   CG331    CG311    CG314    CG2O3     9     0.000000     0.836800     3
   CG331    CG311    CG314   CG2R61     9     0.000000     0.167360     3
   CG331    CG311    CG314    CG321     9   180.000000     2.092000     4
   CG331    CG311    CG314    CG331     9   180.000000     2.092000     4
   CG331    CG311    CG314    NG3P1     9     0.000000     0.836800     3
   CG331    CG311    CG314    NG3P2     9     0.000000     0.836800     3
   CG331    CG311    CG314    NG3P3     9     0.000000     0.836800     3
   CG331    CG311    CG314     HGA1     9     0.000000     0.815880     3
   CG331    CG311    CG321    CG2D1     9     0.000000     0.836800     3
   CG331    CG311    CG321   CG2DC1     9     0.000000     0.836800     3
   CG331    CG311    CG321   CG2DC2     9     0.000000     0.836800     3
   CG331    CG311    CG321    CG2O1     9     0.000000     0.836800     3
   CG331    CG311    CG321    CG2O3     9     0.000000     0.836800     3
   CG331    CG311    CG321    CG2O5     9     0.000000     0.836800     3
   CG331    CG311    CG321   CG2R51     9     0.000000     1.464400     3
   CG331    CG311    CG321   CG2R53     9     0.000000     1.464400     3
   CG331    CG311    CG321   CG2R61     9     0.000000     0.167360     3
   CG331    CG311    CG321    CG301     9     0.000000     0.836800     3
   CG331    CG311    CG321    CG311     9     0.000000     0.836800     3
   CG331    CG311    CG321    CG314     9     0.000000     0.836800     3
   CG331    CG311    CG321    CG321     9     0.000000     0.836800     3
   CG331    CG311    CG321    CG324     9     0.000000     0.836800     3
   CG331    CG311    CG321    CG331     9     0.000000     0.836800     3
   CG331    CG311    CG321   CG3RC1     9     0.000000     0.627600     3
   CG331    CG311    CG321    NG2S0     9     0.000000     1.464400     3
   CG331    CG311    CG321    NG301     9     0.000000     0.836800     3
   CG331    CG311    CG321    NG311     9     0.000000     0.836800     3
   CG331    CG311    CG321    NG3N1     9     0.000000     0.836800     3
   CG331    CG311    CG321    OG301     9     0.000000     0.836800     3
   CG331    CG311    CG321    OG302     9     0.000000     0.836800     3
   CG331    CG311    CG321   OG3C61     9   180.000000     0.794960     1
   CG331    CG311    CG321   OG3C61     9   180.000000     4.184000     2
   CG331    CG311    CG321   OG3C61     9     0.000000     2.510400     3
   CG331    CG311    CG321   OG3C61     9   180.000000     0.334720     4
   CG331    CG311    CG321    SG311     9     0.000000     0.836800     3
   CG331    CG311    CG321    SG3O2     9   180.000000     3.932960     1
   CG331    CG311    CG321    SG3O2     9     0.000000     1.589920     2
   CG331    CG311    CG321    SG3O2     9     0.000000     0.460240     3
   CG331    CG311    CG321    SG3O3     9   180.000000     3.932960     1
   CG331    CG311    CG321    SG3O3     9     0.000000     1.589920     2
   CG331    CG311    CG321    SG3O3     9     0.000000     0.753120     3
   CG331    CG311    CG321    CLGA1     9     0.000000     5.975170     3
   CG331    CG311    CG321     HGA2     9     0.000000     0.836800     3
   CG331    CG311    CG322    CG324     9   180.000000    10.376320     2
   CG331    CG311    CG322    CG324     9   180.000000     4.184000     3
   CG331    CG311    CG322     FGA1     9     0.000000     1.045582     3
   CG331    CG311    CG322     HGA6     9     0.000000     1.066502     3
   CG331    CG311    CG324    NG2P1     9     0.000000     0.815880     3
   CG331    CG311    CG324   NG2R52     9     0.000000     0.836800     3
   CG331    CG311    CG324    NG3P1     9     0.000000     0.836800     3
   CG331    CG311    CG324    NG3P2     9     0.000000     0.836800     3
   CG331    CG311    CG324     HGA2     9     0.000000     0.815880     3
   CG331    CG311    CG331     HGA3     9     0.000000     0.815880     3
   CG331    CG311   CG3C41    CG324     9     0.000000     0.334720     3
   CG331    CG311   CG3C41   CG3C41     9   180.000000     0.376560     3
   CG331    CG311   CG3C41   CG3C41     9   180.000000     1.757280     4
   CG331    CG311   CG3C51   CG3C52     9     0.000000     1.046000     1
   CG331    CG311   CG3C51   CG3C52     9     0.000000     1.046000     2
   CG331    CG311   CG3C51   CG3C52     9     0.000000     1.882800     3
   CG331    CG311   CG3C51   CG3RC1     9     0.000000     0.836800     3
   CG331    CG311   CG3C51   OG3C51     9     0.000000     0.000000     1
   CG331    CG311   CG3C51   OG3C51     9     0.000000     1.380720     2
   CG331    CG311   CG3C51   OG3C51     9   180.000000     0.125520     3
   CG331    CG311   CG3C51     HGA1     9     0.000000     0.815880     3
   CG331    CG311   CG3RC1   CG3C52     9   180.000000     2.092000     4
   CG331    CG311   CG3RC1   CG3RC1     9     0.000000     0.627600     3
   CG331    CG311   CG3RC1    NG3P2     9   180.000000     0.083680     2
   CG331    CG311   CG3RC1    NG3P2     9     0.000000     1.046000     3
   CG331    CG311   CG3RC1    OG311     9     0.000000     0.543920     3
   CG331    CG311   CG3RC1   OG3C51     9   180.000000     0.669440     4
   CG331    CG311   CG3RC1     HGA1     9     0.000000     0.627600     3
   CG331    CG311    NG2D1    NG2D1     9   180.000000     4.184000     1
   CG331    CG311    NG2D1    NG2D1     9   180.000000     1.422560     2
   CG331    CG311    NG2D1    NG2D1     9     0.000000     2.594080     3
   CG331    CG311    NG2D1    NG2D1     9     0.000000     3.221680     4
   CG331    CG311    NG2D1    NG2D1     9   180.000000     1.338880     6
   CG331    CG311   NG2R61   CG2R63     9     0.000000     7.280160     1
   CG331    CG311   NG2R61   CG2R64     9     0.000000     7.280160     1
   CG331    CG311    NG2S0    CG2O1     9     0.000000     7.531200     1
   CG331    CG311    NG2S0    CG2O3     9     0.000000     7.531200     1
   CG331    CG311    NG2S0    CG2O6     9     0.000000     7.531200     1
   CG331    CG311    NG2S0    CG311     9     0.000000    12.803040     1
   CG331    CG311    NG2S0    CG311     9   180.000000     0.460240     2
   CG331    CG311    NG2S0    CG321     9     0.000000    12.803040     1
   CG331    CG311    NG2S0    CG321     9   180.000000     0.460240     2
   CG331    CG311    NG2S0    CG331     9     0.000000    12.808061     1
   CG331    CG311    NG2S0    CG331     9   180.000000     0.467771     2
   CG331    CG311    NG2S1    CG2O1     9     0.000000     7.531200     1
   CG331    CG311    NG2S1    CG2O3     9     0.000000     7.531200     1
   CG331    CG311    NG2S1    CG2O6     9     0.000000     7.531200     1
   CG331    CG311    NG2S1     HGP1     9     0.000000     0.000000     1
   CG331    CG311    NG301   CG2D1O     9   180.000000     1.380720     1
   CG331    CG311    NG301   CG2D1O     9   180.000000     1.799120     2
   CG331    CG311    NG301   CG2D1O     9   180.000000     4.853440     3
   CG331    CG311    NG301   CG2D1O     9     0.000000     0.251040     4
   CG331    CG311    NG301   CG2D2O     9   180.000000     1.380720     1
   CG331    CG311    NG301   CG2D2O     9   180.000000     1.799120     2
   CG331    CG311    NG301   CG2D2O     9   180.000000     4.853440     3
   CG331    CG311    NG301   CG2D2O     9     0.000000     0.251040     4
   CG331    CG311    NG301   CG2R61     9   180.000000     1.840960     1
   CG331    CG311    NG301   CG2R61     9     0.000000     0.125520     2
   CG331    CG311    NG301   CG2R61     9     0.000000     0.041840     3
   CG331    CG311    NG301   CG2R62     9   180.000000     1.840960     1
   CG331    CG311    NG301   CG2R62     9     0.000000     0.125520     2
   CG331    CG311    NG301   CG2R62     9     0.000000     0.041840     3
   CG331    CG311    NG301   CG2R64     9     0.000000     0.251040     2
   CG331    CG311    NG301   CG2R64     9     0.000000     1.966480     3
   CG331    CG311    NG301    CG301     9   180.000000     5.941280     1
   CG331    CG311    NG301    CG301     9     0.000000     3.430880     2
   CG331    CG311    NG301    CG301     9     0.000000     4.267680     3
   CG331    CG311    NG301    CG311     9   180.000000     5.941280     1
   CG331    CG311    NG301    CG311     9     0.000000     3.430880     2
   CG331    CG311    NG301    CG311     9     0.000000     4.267680     3
   CG331    CG311    NG301    CG321     9   180.000000     1.046000     1
   CG331    CG311    NG301    CG321     9   180.000000     0.669440     2
   CG331    CG311    NG301    CG321     9   180.000000     0.920480     3
   CG331    CG311    NG301    CG321     9     0.000000     0.962320     4
   CG331    CG311    NG301    CG331     9   180.000000     0.334720     1
   CG331    CG311    NG301    CG331     9     0.000000     0.627600     2
   CG331    CG311    NG301    CG331     9   180.000000     0.209200     3
   CG331    CG311    NG301    CG331     9     0.000000     4.058480     4
   CG331    CG311    NG301    OG311     9   180.000000     4.644240     1
   CG331    CG311    NG301    OG311     9   180.000000     5.355520     2
   CG331    CG311    NG301    OG311     9     0.000000     0.167360     3
   CG331    CG311    NG301    OG311     9   180.000000     4.058480     4
   CG331    CG311    NG301    OG311     9     0.000000     0.334720     6
   CG331    CG311    NG301    SG3O2     9     0.000000     0.418400     1
   CG331    CG311    NG301    SG3O2     9     0.000000     2.928800     2
   CG331    CG311    NG301    SG3O2     9     0.000000     0.418400     3
   CG331    CG311    NG311   CG2R51     9   180.000000     8.577200     1
   CG331    CG311    NG311   CG2R51     9     0.000000     2.719600     3
   CG331    CG311    NG311   CG2R61     9   180.000000     3.347200     1
   CG331    CG311    NG311   CG2R61     9     0.000000     4.602400     3
   CG331    CG311    NG311   CG2R62     9   180.000000     3.347200     1
   CG331    CG311    NG311   CG2R62     9     0.000000     4.602400     3
   CG331    CG311    NG311   CG2R64     9   180.000000     3.347200     1
   CG331    CG311    NG311   CG2R64     9     0.000000     4.602400     3
   CG331    CG311    NG311    CG311     9   180.000000     3.305360     1
   CG331    CG311    NG311    CG311     9   180.000000     6.359680     2
   CG331    CG311    NG311    CG311     9   180.000000     0.041840     3
   CG331    CG311    NG311    CG314     9   180.000000     5.941280     1
   CG331    CG311    NG311    CG314     9     0.000000     3.430880     2
   CG331    CG311    NG311    CG314     9     0.000000     4.267680     3
   CG331    CG311    NG311    CG321     9   180.000000     5.941280     1
   CG331    CG311    NG311    CG321     9     0.000000     3.430880     2
   CG331    CG311    NG311    CG321     9     0.000000     4.267680     3
   CG331    CG311    NG311   OG3R60     9   180.000000     3.891120     1
   CG331    CG311    NG311   OG3R60     9   180.000000     0.251040     2
   CG331    CG311    NG311   OG3R60     9   180.000000     0.376560     3
   CG331    CG311    NG311     HGP1     9     0.000000     0.418400     3
   CG331    CG311    NG311   HGPAM1     9     0.000000     1.255200     3
   CG331    CG311    NG321   HGPAM2     9     0.000000     2.092000     1
   CG331    CG311    NG321   HGPAM2     9     0.000000     1.673600     3
   CG331    CG311   NG3C51   CG2RC0     9   180.000000     2.343040     1
   CG331    CG311   NG3C51   CG2RC0     9     0.000000     0.000000     3
   CG331    CG311   NG3C51   CG2RC0     9     0.000000     0.460240     6
   CG331    CG311   NG3C51   CG3C52     9   180.000000     0.962320     1
   CG331    CG311   NG3C51   CG3C52     9     0.000000     6.485200     2
   CG331    CG311    NG3N1    NG3N1     9   180.000000     0.376560     1
   CG331    CG311    NG3N1    NG3N1     9     0.000000     3.932960     2
   CG331    CG311    NG3N1    NG3N1     9   180.000000     0.167360     3
   CG331    CG311    NG3N1     HGP1     9   180.000000     0.251040     3
   CG331    CG311    OG301   CG2R61     9     0.000000     1.004160     1
   CG331    CG311    OG301   CG2R61     9     0.000000     1.213360     2
   CG331    CG311    OG301   CG2R61     9     0.000000     0.083680     3
   CG331    CG311    OG301    CG321     9     0.000000     1.673600     1
   CG331    CG311    OG301    CG321     9     0.000000     2.050160     3
   CG331    CG311    OG301    CG331     9     0.000000     1.673600     1
   CG331    CG311    OG301    CG331     9     0.000000     2.050160     3
   CG331    CG311    OG301    NG301     9   180.000000     1.757280     1
   CG331    CG311    OG301    NG301     9   180.000000     3.723760     3
   CG331    CG311    OG301    OG311     9   180.000000     4.602400     1
   CG331    CG311    OG301    OG311     9     0.000000     2.092000     3
   CG331    CG311    OG302    CG2O2     9     0.000000     0.000000     3
   CG331    CG311    OG303      PG0     9   180.000000     1.673600     1
   CG331    CG311    OG303      PG0     9     0.000000     1.255200     2
   CG331    CG311    OG303      PG0     9     0.000000     0.418400     3
   CG331    CG311    OG303      PG2     9   180.000000     1.673600     1
   CG331    CG311    OG303      PG2     9     0.000000     1.255200     2
   CG331    CG311    OG303      PG2     9     0.000000     0.418400     3
   CG331    CG311    OG303    SG3O1     9     0.000000     0.000000     3
   CG331    CG311    OG311     HGP1     9     0.000000     5.564720     1
   CG331    CG311    OG311     HGP1     9     0.000000     0.753120     2
   CG331    CG311    OG311     HGP1     9     0.000000     1.924640     3
   CG331    CG311   OG3C61    CG301     9   180.000000     2.217520     1
   CG331    CG311   OG3C61    CG301     9     0.000000     2.845120     2
   CG331    CG311   OG3C61    CG301     9   180.000000     0.878640     3
   CG331    CG311   OG3C61    CG301     9     0.000000     0.627600     4
   CG331    CG311   OG3C61    CG311     9   180.000000     2.217520     1
   CG331    CG311   OG3C61    CG311     9     0.000000     2.845120     2
   CG331    CG311   OG3C61    CG311     9   180.000000     0.878640     3
   CG331    CG311   OG3C61    CG311     9     0.000000     0.627600     4
   CG331    CG311   OG3C61    CG321     9   180.000000     2.217520     1
   CG331    CG311   OG3C61    CG321     9     0.000000     2.845120     2
   CG331    CG311   OG3C61    CG321     9   180.000000     0.878640     3
   CG331    CG311   OG3C61    CG321     9     0.000000     0.627600     4
   CG331    CG311   OG3C61   CG3C41     9   180.000000     2.217520     1
   CG331    CG311   OG3C61   CG3C41     9     0.000000     2.845120     2
   CG331    CG311   OG3C61   CG3C41     9   180.000000     0.878640     3
   CG331    CG311   OG3C61   CG3C41     9     0.000000     0.627600     4
   CG331    CG311   OG3C61   CG3C50     9   180.000000     3.179840     1
   CG331    CG311   OG3C61   CG3C50     9   180.000000     7.029120     2
   CG331    CG311   OG3C61   CG3C50     9     0.000000     0.418400     3
   CG331    CG311   OG3C61   CG3C50     9     0.000000     2.719600     4
   CG331    CG311   OG3C61    NG2S0     9     0.000000     3.598240     1
   CG331    CG311   OG3C61    NG2S0     9   180.000000     0.711280     2
   CG331    CG311   OG3C61    NG2S0     9   180.000000     7.614880     3
   CG331    CG311   OG3R60   CG2D1O     9   180.000000     1.840960     2
   CG331    CG311   OG3R60   CG2D1O     9     0.000000     1.464400     3
   CG331    CG311   OG3R60   CG2D2O     9   180.000000     1.840960     2
   CG331    CG311   OG3R60   CG2D2O     9     0.000000     1.464400     3
   CG331    CG311   OG3R60    CG2O2     9   180.000000     0.502080     3
   CG331    CG311   OG3R60   CG2R61     9   180.000000     1.589920     1
   CG331    CG311   OG3R60   CG2R61     9     0.000000     1.004160     2
   CG331    CG311   OG3R60   CG2R61     9     0.000000     0.794960     3
   CG331    CG311   OG3R60    NG2D1     9     0.000000     4.142160     1
   CG331    CG311   OG3R60    NG2D1     9   180.000000     5.020800     2
   CG331    CG311   OG3R60    NG2D1     9   180.000000     1.966480     3
   CG331    CG311   OG3R60   NG2R61     9     0.000000     1.129680     1
   CG331    CG311   OG3R60   NG2R61     9     0.000000     2.175680     2
   CG331    CG311   OG3R60   NG2R61     9   180.000000     0.753120     3
   CG331    CG311    SG311   CG2D1O     9   180.000000     1.129680     1
   CG331    CG311    SG311   CG2D1O     9   180.000000     0.460240     2
   CG331    CG311    SG311   CG2D1O     9   180.000000     0.000000     3
   CG331    CG311    SG311   CG2D2O     9   180.000000     1.129680     1
   CG331    CG311    SG311   CG2D2O     9   180.000000     0.460240     2
   CG331    CG311    SG311   CG2D2O     9   180.000000     0.000000     3
   CG331    CG311    SG311   CG2R61     9   180.000000     1.129680     1
   CG331    CG311    SG311   CG2R61     9   180.000000     2.928800     2
   CG331    CG311    SG311    CG311     9   180.000000     1.004160     1
   CG331    CG311    SG311    CG311     9     0.000000     1.548080     3
   CG331    CG311    SG311    CG321     9   180.000000     1.004160     1
   CG331    CG311    SG311    CG321     9     0.000000     1.548080     3
   CG331    CG311    SG311    CG331     9   180.000000     1.004160     1
   CG331    CG311    SG311    CG331     9     0.000000     1.548080     3
   CG331    CG311    SG311     HGP3     9     0.000000     1.004160     1
   CG331    CG311    SG311     HGP3     9     0.000000     0.627600     2
   CG331    CG311    SG311     HGP3     9     0.000000     1.129680     3
   CG331    CG311    SG3O2   CG2R61     9     0.000000     0.711280     2
   CG331    CG311    SG3O2   CG2R61     9   180.000000     8.368000     3
   CG331    CG311    SG3O2    CG311     9     0.000000     3.765600     1
   CG331    CG311    SG3O2    CG311     9     0.000000     1.464400     2
   CG331    CG311    SG3O2    CG311     9     0.000000     0.502080     3
   CG331    CG311    SG3O2    CG321     9     0.000000     3.765600     1
   CG331    CG311    SG3O2    CG321     9     0.000000     1.464400     2
   CG331    CG311    SG3O2    CG321     9     0.000000     0.502080     3
   CG331    CG311    SG3O2    OG2P1     9     0.000000     0.753120     3
   CG331    CG311    SG3O3    CG311     9   180.000000     0.753120     1
   CG331    CG311    SG3O3    CG311     9     0.000000     2.384880     3
   CG331    CG311    SG3O3    CG321     9     0.000000     0.083680     1
   CG331    CG311    SG3O3    CG321     9   180.000000     0.418400     3
   CG331    CG311    SG3O3    CG321     9     0.000000     0.251040     4
   CG331    CG311    SG3O3    OG2P1     9   180.000000     1.924640     1
   CG331    CG311    SG3O3    OG2P1     9   180.000000     0.543920     2
   CG331    CG311    SG3O3    OG2P1     9     0.000000     1.171520     3
   CG331    CG311    CG2O1      NH1     9     0.000000     0.000000     1
   CG331    CG311    CG2O1        N     9     0.000000     0.000000     1
   CG331    CG311      CT1        C     9     0.000000     0.836800     3
   CG331    CG311     CTD1        C     9     0.000000     0.836800     3
   CG331    CG314    CG314    NG3P3     9     0.000000     0.836800     3
   CG331    CG314    CG314     HGA1     9     0.000000     0.836800     3
   CG331    CG314    CG321    CG2O5     9     0.000000     0.836800     3
   CG331    CG314    CG321   CG2R51     9     0.000000     1.464400     3
   CG331    CG314    CG321    CG311     9     0.000000     0.836800     3
   CG331    CG314    CG321    CG314     9     0.000000     0.836800     3
   CG331    CG314    CG321    CG321     9     0.000000     0.836800     3
   CG331    CG314    CG321    CG331     9     0.000000     0.836800     3
   CG331    CG314    CG321    NG2S0     9     0.000000     1.464400     3
   CG331    CG314    CG321    NG311     9     0.000000     0.836800     3
   CG331    CG314    CG321    SG3O3     9   180.000000     3.932960     1
   CG331    CG314    CG321    SG3O3     9     0.000000     1.589920     2
   CG331    CG314    CG321    SG3O3     9     0.000000     0.753120     3
   CG331    CG314    CG321     HGA2     9     0.000000     0.815880     3
   CG331    CG314    CG331     HGA3     9     0.000000     0.815880     3
   CG331    CG314    NG2P1    CG2N1     9   180.000000     0.000000     6
   CG331    CG314    NG2P1    CG314     9     0.000000     0.836800     3
   CG331    CG314    NG2P1    CG314     9     0.000000     0.167360     4
   CG331    CG314    NG2P1     HGP2     9   180.000000     0.000000     6
   CG331    CG314   NG2R52   CG2R51     9     0.000000     1.464400     2
   CG331    CG314   NG2R52   CG2R51     9     0.000000     0.251040     3
   CG331    CG314   NG2R52   CG2R53     9     0.000000     4.560560     2
   CG331    CG314   NG2R52   CG2R53     9     0.000000     0.083680     3
   CG331    CG314   NG2R61   CG2R62     9     0.000000     7.070960     1
   CG331    CG314    NG311    CG2N1     9     0.000000     8.493520     1
   CG331    CG314    NG311    CG2N1     9     0.000000     8.326160     3
   CG331    CG314    NG311    CG311     9   180.000000     1.255200     1
   CG331    CG314    NG311    CG311     9     0.000000     5.564720     2
   CG331    CG314    NG311    CG311     9     0.000000     2.301200     3
   CG331    CG314    NG311   HGPAM1     9     0.000000     1.255200     3
   CG331    CG314    NG3P0    CG334     9     0.000000     1.087840     3
   CG331    CG314    NG3P1   CG2R61     9   180.000000     0.460240     3
   CG331    CG314    NG3P1    CG324     9     0.000000     0.418400     3
   CG331    CG314    NG3P1    CG334     9     0.000000     0.418400     3
   CG331    CG314    NG3P1     HGP2     9     0.000000     0.418400     3
   CG331    CG314    NG3P2    CG301     9   180.000000     1.631760     3
   CG331    CG314    NG3P2    CG301     9     0.000000     0.669440     4
   CG331    CG314    NG3P2    CG314     9     0.000000     0.418400     3
   CG331    CG314    NG3P2    CG324     9     0.000000     0.418400     3
   CG331    CG314    NG3P2   CG3C50     9   180.000000     4.309520     3
   CG331    CG314    NG3P2   CG3C50     9     0.000000     0.292880     4
   CG331    CG314    NG3P2     HGP2     9     0.000000     0.418400     3
   CG331    CG314    NG3P3     HGP2     9     0.000000     0.418400     3
   CG331    CG321    CG321    CG331     9     0.000000     0.159787     2
   CG331    CG321    CG321    CG331     9   180.000000     0.132968     6
   CG331    CG321    CG321    NG1T1     9   180.000000     3.098670     1
   CG331    CG321    CG321    NG1T1     9     0.000000     2.697425     3
   CG331    CG321    CG321    NG2D1     9   180.000000     3.305360     1
   CG331    CG321    CG321    NG2D1     9     0.000000     0.836800     2
   CG331    CG321    CG321    NG2D1     9     0.000000     0.502080     3
   CG331    CG321    CG321    NG2D1     9     0.000000     0.627600     4
   CG331    CG321    CG321    NG2D1     9   180.000000     0.209200     6
   CG331    CG321    CG321   NG2R61     9   180.000000     2.092000     1
   CG331    CG321    CG321    NG2S1     9     0.000000     0.836800     3
   CG331    CG321    CG321    NG311     9     0.000000     1.255200     3
   CG331    CG321    CG321    OG301     9   180.000000     0.669440     1
   CG331    CG321    CG321    OG301     9     0.000000     1.631760     2
   CG331    CG321    CG321    OG311     9     0.000000     0.815880     3
   CG331    CG321    CG321    SG301     9     0.000000     0.815880     3
   CG331    CG321    CG321    SG311     9     0.000000     0.815880     3
   CG331    CG321    CG321    SG3O1     9   180.000000     3.932960     1
   CG331    CG321    CG321    SG3O1     9     0.000000     1.589920     2
   CG331    CG321    CG321    SG3O1     9     0.000000     0.460240     3
   CG331    CG321    CG321     HGA2     9     0.000000     0.753120     3
   CG331    CG321    CG322    CG2O3     9     0.000000     3.980658     3
   CG331    CG321    CG322     FGA1     9   180.000000     1.442643     3
   CG331    CG321    CG322     HGA6     9   180.000000     0.076567     3
   CG331    CG321    CG324    NG2O1     9   180.000000     3.670623     1
   CG331    CG321    CG324    NG2O1     9     0.000000     0.996629     2
   CG331    CG321    CG324    NG2O1     9   180.000000     0.612956     3
   CG331    CG321    CG324    NG2P1     9     0.000000     0.815880     3
   CG331    CG321    CG324     HGA2     9     0.000000     0.815880     3
   CG331    CG321    CG331     HGA3     9     0.000000     0.669440     3
   CG331    CG321   CG3C31   CG3C31     9     0.000000     0.000000     3
   CG331    CG321   CG3C31   OG3C31     9   180.000000     1.966480     1
   CG331    CG321   CG3C31   OG3C31     9     0.000000     0.543920     3
   CG331    CG321   CG3C31     HGA1     9     0.000000     0.753120     1
   CG331    CG321   CG3C31     HGA1     9     0.000000     4.476880     3
   CG331    CG321   CG3C50   CG2RC0     9     0.000000     3.891120     3
   CG331    CG321   CG3C50   CG2RC0     9   180.000000     0.251040     4
   CG331    CG321   CG3C50    CG331     9     0.000000     1.673600     3
   CG331    CG321   CG3C50    OG311     9   180.000000     1.548080     3
   CG331    CG321   CG3C50   OG3C51     9   180.000000     1.464400     1
   CG331    CG321   CG3C50   OG3C51     9     0.000000     2.384880     3
   CG331    CG321    NG1T1    NG1T1     9     0.000000     2.541780     1
   CG331    CG321    NG1T1    NG1T1     9     0.000000     1.704562     3
   CG331    CG321    NG2D1   CG2DC1     9     0.000000     2.552240     1
   CG331    CG321    NG2D1   CG2DC1     9   180.000000     2.594080     2
   CG331    CG321    NG2D1   CG2DC1     9     0.000000     1.046000     3
   CG331    CG321    NG2D1   CG2DC1     9     0.000000     2.510400     4
   CG331    CG321    NG2D1   CG2DC1     9     0.000000     1.046000     6
   CG331    CG321    NG2D1   CG2DC2     9     0.000000     2.552240     1
   CG331    CG321    NG2D1   CG2DC2     9   180.000000     2.594080     2
   CG331    CG321    NG2D1   CG2DC2     9     0.000000     1.046000     3
   CG331    CG321    NG2D1   CG2DC2     9     0.000000     2.510400     4
   CG331    CG321    NG2D1   CG2DC2     9     0.000000     1.046000     6
   CG331    CG321    NG2D1    CG2N2     9     0.000000     0.794960     1
   CG331    CG321    NG2D1    CG2N2     9   180.000000     1.422560     2
   CG331    CG321    NG2D1    CG2N2     9   180.000000     2.343040     3
   CG331    CG321    NG2D1    CG2N2     9     0.000000     0.502080     4
   CG331    CG321    NG2D1    CG2N2     9   180.000000     0.502080     6
   CG331    CG321    NG2D1    CG2O1     9     0.000000     2.759348     1
   CG331    CG321    NG2D1    CG2O1     9     0.000000     0.208363     2
   CG331    CG321    NG2D1    CG2O1     9   180.000000     6.755068     3
   CG331    CG321   NG2R51   CG2R51     9     0.000000     1.610840     1
   CG331    CG321   NG2R51   CG2R51     9     0.000000     1.757280     2
   CG331    CG321   NG2R51   CG2R51     9     0.000000     0.334720     3
   CG331    CG321   NG2R51   CG2R51     9     0.000000     0.230120     4
   CG331    CG321   NG2R51   CG2R53     9     0.000000     1.610840     1
   CG331    CG321   NG2R51   CG2R53     9     0.000000     1.757280     2
   CG331    CG321   NG2R51   CG2R53     9     0.000000     0.334720     3
   CG331    CG321   NG2R51   CG2R53     9     0.000000     0.230120     4
   CG331    CG321   NG2R51   NG2R50     9   180.000000     1.610840     1
   CG331    CG321   NG2R51   NG2R50     9     0.000000     1.757280     2
   CG331    CG321   NG2R51   NG2R50     9   180.000000     0.334720     3
   CG331    CG321   NG2R51   NG2R50     9     0.000000     0.230120     4
   CG331    CG321   NG2R53   CG2R53     9     0.000000     0.000000     1
   CG331    CG321   NG2R61   CG2R61     9     0.000000     7.070960     1
   CG331    CG321   NG2R61   CG2R64     9     0.000000     7.280160     1
   CG331    CG321    NG2S0    CG2O1     9     0.000000     7.531200     1
   CG331    CG321    NG2S0    CG2O6     9   180.000000     1.464400     1
   CG331    CG321    NG2S0    CG2O6     9     0.000000     3.138000     2
   CG331    CG321    NG2S0    CG2O6     9     0.000000     0.627600     4
   CG331    CG321    NG2S0    CG321     9     0.000000     5.913666     1
   CG331    CG321    NG2S0    CG321     9     0.000000     5.360541     2
   CG331    CG321    NG2S0    CG331     9     0.000000     0.825922     1
   CG331    CG321    NG2S0   CG3C50     9   180.000000     0.167360     1
   CG331    CG321    NG2S0   CG3C50     9     0.000000     6.736240     2
   CG331    CG321    NG2S0   CG3C50     9     0.000000     0.000000     6
   CG331    CG321    NG2S0    OG311     9     0.000000     2.502032     1
   CG331    CG321    NG2S0    SG3O2     9   180.000000     1.422560     1
   CG331    CG321    NG2S0    SG3O2     9     0.000000     4.518720     2
   CG331    CG321    NG2S0    SG3O2     9   180.000000     0.083680     3
   CG331    CG321    NG2S0    SG3O2     9     0.000000     0.669440     4
   CG331    CG321    NG2S0    SG3O2     9   180.000000     0.836800     6
   CG331    CG321    NG2S1    CG2O1     9     0.000000     2.592406     2
   CG331    CG321    NG2S1    CG2O1     9   180.000000     0.745589     3
   CG331    CG321    NG2S1    CG2O6     9   180.000000     1.464400     1
   CG331    CG321    NG2S1    CG2O6     9     0.000000     3.138000     2
   CG331    CG321    NG2S1    CG2O6     9     0.000000     0.627600     4
   CG331    CG321    NG2S1     HGP1     9     0.000000     0.000000     1
   CG331    CG321    NG2S3      PG1     9   180.000000     6.445870     1
   CG331    CG321    NG2S3      PG1     9     0.000000     0.384510     2
   CG331    CG321    NG2S3      PG1     9     0.000000     1.777782     3
   CG331    CG321    NG2S3    SG3O1     9   180.000000     3.158920     1
   CG331    CG321    NG2S3    SG3O1     9     0.000000     3.623344     2
   CG331    CG321    NG2S3    SG3O1     9     0.000000     2.627552     3
   CG331    CG321    NG2S3    SG3O1     9   180.000000     0.631784     4
   CG331    CG321    NG2S3    SG3O1     9     0.000000     0.472792     6
   CG331    CG321    NG2S3     HGP1     9     0.000000     3.100344     1
   CG331    CG321    NG2S3     HGP1     9     0.000000     1.343064     2
   CG331    CG321    NG2S3     HGP1     9   180.000000     0.983240     3
   CG331    CG321    NG301   CG2R61     9   180.000000     1.840960     1
   CG331    CG321    NG301   CG2R61     9     0.000000     0.125520     2
   CG331    CG321    NG301   CG2R61     9     0.000000     0.041840     3
   CG331    CG321    NG301   CG2R64     9     0.000000     0.251040     2
   CG331    CG321    NG301   CG2R64     9     0.000000     1.966480     3
   CG331    CG321    NG301    CG321     9   180.000000     5.941280     1
   CG331    CG321    NG301    CG321     9     0.000000     3.430880     2
   CG331    CG321    NG301    CG321     9     0.000000     4.267680     3
   CG331    CG321    NG301   CG3C50     9   180.000000     2.133840     1
   CG331    CG321    NG301   CG3C50     9     0.000000     0.669440     2
   CG331    CG321    NG301   CG3C50     9   180.000000     3.849280     3
   CG331    CG321    NG301   CG3C50     9     0.000000     0.962320     6
   CG331    CG321    NG311    SG3O2     9     0.000000     0.418400     1
   CG331    CG321    NG311    SG3O2     9     0.000000     2.928800     2
   CG331    CG321    NG311    SG3O2     9     0.000000     0.418400     3
   CG331    CG321    NG311     HGP1     9     0.000000     0.418400     3
   CG331    CG321   NG3C51   CG3C50     9   180.000000    12.928560     1
   CG331    CG321   NG3C51   CG3C50     9   180.000000     1.548080     2
   CG331    CG321   NG3C51   CG3C50     9     0.000000     1.255200     3
   CG331    CG321   NG3C51   CG3C52     9   180.000000     0.962320     1
   CG331    CG321   NG3C51   CG3C52     9     0.000000     6.485200     2
   CG331    CG321    OG301   CG2R61     9     0.000000     1.004160     1
   CG331    CG321    OG301   CG2R61     9     0.000000     1.213360     2
   CG331    CG321    OG301   CG2R61     9     0.000000     0.083680     3
   CG331    CG321    OG301    CG321     9     0.000000     1.673600     1
   CG331    CG321    OG301    CG321     9     0.000000     2.050160     3
   CG331    CG321    OG301    CG331     9     0.000000     1.673600     1
   CG331    CG321    OG301    CG331     9     0.000000     2.050160     3
   CG331    CG321    OG301    NG2D1     9   180.000000     1.559377     1
   CG331    CG321    OG301    NG2D1     9     0.000000     3.033400     2
   CG331    CG321    OG301    NG2D1     9     0.000000     0.094977     3
   CG331    CG321    OG301    NG2P1     9     0.000000     0.707096     1
   CG331    CG321    OG301    NG2P1     9     0.000000     1.129680     2
   CG331    CG321    OG301    NG2P1     9     0.000000     3.029216     3
   CG331    CG321    OG301    NG321     9   180.000000     1.758535     1
   CG331    CG321    OG301    NG321     9   180.000000     3.739241     3
   CG331    CG321    OG302    CG2O2     9     0.000000     0.000000     3
   CG331    CG321    OG302    CG2O6     9   180.000000     0.418400     1
   CG331    CG321    OG302    CG2O6     9     0.000000     2.510400     2
   CG331    CG321    OG302    CG2O6     9   180.000000     0.418400     3
   CG331    CG321    OG303      PG0     9   180.000000     2.510400     1
   CG331    CG321    OG303      PG0     9     0.000000     2.719600     2
   CG331    CG321    OG303      PG0     9     0.000000     0.209200     3
   CG331    CG321    OG303      PG1     9   180.000000     2.510400     1
   CG331    CG321    OG303      PG1     9     0.000000     2.719600     2
   CG331    CG321    OG303      PG1     9     0.000000     0.209200     3
   CG331    CG321    OG303      PG2     9   180.000000     2.510400     1
   CG331    CG321    OG303      PG2     9     0.000000     2.719600     2
   CG331    CG321    OG303      PG2     9     0.000000     0.209200     3
   CG331    CG321    OG303    SG3O2     9     0.000000     0.000000     3
   CG331    CG321    OG311     HGP1     9     0.000000     4.727920     1
   CG331    CG321    OG311     HGP1     9     0.000000     0.585760     2
   CG331    CG321    OG311     HGP1     9     0.000000     1.004160     3
   CG331    CG321    SG2P1      PG2     9   180.000000     1.405824     1
   CG331    CG321    SG2P1      PG2     9     0.000000     2.190324     2
   CG331    CG321    SG2P1      PG2     9   180.000000     0.644336     3
   CG331    CG321    SG301    OG301     9   180.000000     4.132537     1
   CG331    CG321    SG301    OG301     9     0.000000     0.279073     2
   CG331    CG321    SG301    OG301     9     0.000000     1.037214     3
   CG331    CG321    SG301    OG311     9   180.000000     3.047626     1
   CG331    CG321    SG301    OG311     9     0.000000     1.372352     3
   CG331    CG321    SG301    OG312     9   180.000000     6.059687     1
   CG331    CG321    SG301    OG312     9     0.000000     2.558934     2
   CG331    CG321    SG301    OG312     9     0.000000     5.165148     3
   CG331    CG321    SG301    SG301     9     0.000000     1.297040     3
   CG331    CG321    SG301    SG311     9     0.000000     1.297040     3
   CG331    CG321    SG301    SG3O1     9   180.000000     3.381090     1
   CG331    CG321    SG301    SG3O1     9     0.000000     2.079448     2
   CG331    CG321    SG311    CG1N1     9   180.000000     2.197437     1
   CG331    CG321    SG311    CG1N1     9   180.000000     0.041422     3
   CG331    CG321    SG311    CG2O2     9   180.000000     0.867762     1
   CG331    CG321    SG311    CG2O2     9     0.000000     2.129238     2
   CG331    CG321    SG311    CG2O6     9   180.000000     0.494967     1
   CG331    CG321    SG311    CG2O6     9     0.000000     3.219170     2
   CG331    CG321    SG311    CG2O6     9   180.000000     3.876476     3
   CG331    CG321    SG311    CG301     9   180.000000     1.004160     1
   CG331    CG321    SG311    CG301     9     0.000000     1.548080     3
   CG331    CG321    SG311    CG311     9   180.000000     1.004160     1
   CG331    CG321    SG311    CG311     9     0.000000     1.548080     3
   CG331    CG321    SG311    CG312     9   180.000000     3.254734     1
   CG331    CG321    SG311    CG312     9     0.000000     1.280304     3
   CG331    CG321    SG311    CG321     9   180.000000     1.004160     1
   CG331    CG321    SG311    CG321     9     0.000000     1.548080     3
   CG331    CG321    SG311    CG331     9   180.000000     1.004160     1
   CG331    CG321    SG311    CG331     9     0.000000     1.548080     3
   CG331    CG321    SG311   CG3C51     9   180.000000     0.769856     1
   CG331    CG321    SG311   CG3C51     9     0.000000     1.058552     2
   CG331    CG321    SG311   CG3C51     9     0.000000     0.627600     3
   CG331    CG321    SG311    NG2D1     9   180.000000     0.210037     1
   CG331    CG321    SG311    NG2D1     9     0.000000     2.845538     2
   CG331    CG321    SG311     HGP3     9     0.000000     1.004160     1
   CG331    CG321    SG311     HGP3     9     0.000000     0.627600     2
   CG331    CG321    SG311     HGP3     9     0.000000     1.129680     3
   CG331    CG321    SG3O1    OG2P1     9     0.000000     1.087840     3
   CG331    CG321    SG3O2    CG331     9     0.000000     3.765600     1
   CG331    CG321    SG3O2    CG331     9     0.000000     1.464400     2
   CG331    CG321    SG3O2    CG331     9     0.000000     0.523000     3
   CG331    CG321    SG3O2    NG311     9     0.000000     0.418400     1
   CG331    CG321    SG3O2    NG311     9     0.000000     1.673600     2
   CG331    CG321    SG3O2    NG311     9     0.000000     1.506240     3
   CG331    CG321    SG3O2    OG2P1     9     0.000000     0.753120     3
   CG331    CG321    SG3O3    CG331     9   180.000000     0.753120     1
   CG331    CG321    SG3O3    CG331     9     0.000000     2.384880     3
   CG331    CG321    SG3O3    OG2P1     9   180.000000     6.694400     1
   CG331    CG321    SG3O3    OG2P1     9   180.000000     1.004160     2
   CG331    CG321    SG3O3    OG2P1     9   180.000000     0.125520     3
   CG331    CG321    BG201    OG2D2     9     0.000000     1.643475     2
   CG331    CG321    BG201    OG2D2     9     0.000000     1.371097     4
   CG331    CG321    BG201    OG2D2     9     0.000000     1.256037     6
   CG331    CG321    BG201    OG311     9   180.000000     1.550590     2
   CG331    CG321    BG201    OG311     9   180.000000     0.055229     4
   CG331    CG321    BG201    OG311     9   180.000000     0.089119     6
   CG331    CG321      CT1        C     9     0.000000     0.836800     3
   CG331    CG322    CG331     HGA3     9     0.000000     0.768601     3
   CG331    CG322      CT1        C     9     0.000000     0.836800     3
   CG331    CG322     CTD1        C     9     0.000000     0.836800     3
   CG331    CG324    NG2P1     HGP2     9   180.000000     0.000000     6
   CG331    CG324   NG2R61   CG2R62     9     0.000000     7.070960     1
   CG331    CG324   NG2R61   CG2R63     9     0.000000     7.280160     1
   CG331    CG324   NG2R61   CG2RC0     9     0.000000     7.070960     1
   CG331    CG324    NG3P0    CG324     9     0.000000     1.087840     3
   CG331    CG324    NG3P0    CG334     9     0.000000     1.087840     3
   CG331    CG324    NG3P1    CG324     9     0.000000     0.418400     3
   CG331    CG324    NG3P1   CG3C50     9     0.000000     4.727920     3
   CG331    CG324    NG3P1   CG3C50     9     0.000000     0.836800     6
   CG331    CG324    NG3P1     HGP2     9     0.000000     0.418400     3
   CG331    CG324    NG3P2    CG314     9     0.000000     1.673600     1
   CG331    CG324    NG3P2    CG314     9     0.000000     1.046000     2
   CG331    CG324    NG3P2    CG314     9     0.000000     2.510400     3
   CG331    CG324    NG3P2    CG324     9     0.000000     1.673600     1
   CG331    CG324    NG3P2    CG324     9     0.000000     1.046000     2
   CG331    CG324    NG3P2    CG324     9     0.000000     2.510400     3
   CG331    CG324    NG3P2     HGP2     9     0.000000     0.418400     3
   CG331    CG324    NG3P3     HGP2     9     0.000000     0.418400     3
   CG331   CG3C31   CG3C31   CG3C31     9   180.000000     0.502080     2
   CG331   CG3C31   CG3C31   CG3C31     9     0.000000     2.384880     6
   CG331   CG3C31   CG3C31   CG3C52     9   180.000000     1.129680     2
   CG331   CG3C31   CG3C31   CG3C52     9     0.000000     0.251040     6
   CG331   CG3C31   CG3C31   CG3C54     9   180.000000     1.087840     2
   CG331   CG3C31   CG3C31   CG3C54     9   180.000000     1.087840     6
   CG331   CG3C31   CG3C31   OG3C31     9   180.000000     0.460240     6
   CG331   CG3C31   CG3C31     HGA2     9   180.000000     0.836800     5
   CG331   CG3C31   CG3RC1   CG2R61     9     0.000000     0.000000     2
   CG331   CG3C31   CG3RC1   CG2R61     9     0.000000     7.991440     3
   CG331   CG3C31   CG3RC1    CG331     9     0.000000     0.000000     2
   CG331   CG3C31   CG3RC1    CG331     9     0.000000     8.116960     3
   CG331   CG3C31   CG3RC1   CG3C52     9     0.000000     0.000000     2
   CG331   CG3C31   CG3RC1   CG3C52     9     0.000000     8.116960     3
   CG331   CG3C31   CG3RC1   CG3RC1     9     0.000000    14.476640     2
   CG331   CG3C31   CG3RC1   CG3RC1     9   180.000000    21.338400     3
   CG331   CG3C31   CG3RC1     HGA1     9     0.000000     0.000000     3
   CG331   CG3C31   OG3C31   CG3C31     9     0.000000     2.677760     5
   CG331   CG3C31   OG3C31   CG3C31     9   180.000000     3.389040     6
   CG331   CG3C41   CG3C41    CG331     9   180.000000     4.560560     2
   CG331   CG3C41   CG3C41    CG331     9     0.000000     3.514560     3
   CG331   CG3C41   CG3C41   CG3C41     9   180.000000     5.439200     2
   CG331   CG3C41   CG3C41   CG3C41     9     0.000000     0.000000     3
   CG331   CG3C41   CG3C41    NG3P2     9   180.000000     0.251040     2
   CG331   CG3C41   CG3C41    NG3P2     9   180.000000     2.970640     3
   CG331   CG3C41   CG3C41     HGA1     9     0.000000     0.000000     3
   CG331   CG3C41   CG3C41     HGA2     9     0.000000     0.000000     3
   CG331   CG3C41    NG3P2   CG3C41     9   180.000000     8.368000     2
   CG331   CG3C41    NG3P2   CG3C41     9   180.000000     4.644240     3
   CG331   CG3C41    NG3P2     HGP2     9   180.000000     4.518720     2
   CG331   CG3C41    NG3P2     HGP2     9     0.000000     4.476880     3
   CG331   CG3C50   CG3C50    CG331     9     0.000000     1.046000     3
   CG331   CG3C50   CG3C50    CG331     9   180.000000     0.209200     6
   CG331   CG3C50   CG3C50   CG3C50     9     0.000000     0.585760     2
   CG331   CG3C50   CG3C50   CG3C50     9   180.000000     0.794960     3
   CG331   CG3C50   CG3C50   CG3C51     9     0.000000     2.050160     3
   CG331   CG3C50   CG3C50   CG3C51     9   180.000000     0.585760     6
   CG331   CG3C50   CG3C50   CG3C52     9     0.000000     2.133840     3
   CG331   CG3C50   CG3C50   CG3C52     9   180.000000     0.125520     6
   CG331   CG3C50   CG3C50   NG2R53     9   180.000000    13.765360     2
   CG331   CG3C50   CG3C50   NG2R53     9   180.000000    10.376320     4
   CG331   CG3C50   CG3C50   OG3C61     9   180.000000     2.259360     3
   CG331   CG3C50   CG3C50   OG3C61     9   180.000000     0.543920     6
   CG331   CG3C50   CG3C51    CG2O1     9   180.000000     1.380720     3
   CG331   CG3C50   CG3C51    CG2O1     9   180.000000     0.083680     6
   CG331   CG3C50   CG3C51    CG2O2     9     0.000000     4.518720     3
   CG331   CG3C50   CG3C51    CG2O2     9     0.000000     0.460240     6
   CG331   CG3C50   CG3C51    CG2O3     9     0.000000     0.000000     2
   CG331   CG3C50   CG3C51    CG2O3     9     0.000000     3.054320     3
   CG331   CG3C50   CG3C51   CG2R53     9   180.000000     6.736240     3
   CG331   CG3C50   CG3C51   CG2R53     9     0.000000     8.911920     4
   CG331   CG3C50   CG3C51   CG2R53     9     0.000000     1.966480     6
   CG331   CG3C50   CG3C51    CG321     9   180.000000     1.129680     3
   CG331   CG3C50   CG3C51    CG321     9     0.000000     0.334720     6
   CG331   CG3C50   CG3C51    CG324     9   180.000000     2.886960     3
   CG331   CG3C50   CG3C51    CG324     9     0.000000     0.334720     6
   CG331   CG3C50   CG3C51    CG331     9   180.000000     0.167360     3
   CG331   CG3C50   CG3C51    CG331     9     0.000000     0.627600     6
   CG331   CG3C50   CG3C51   CG3C52     9     0.000000     0.794960     3
   CG331   CG3C50   CG3C51   CG3C54     9   180.000000     0.083680     3
   CG331   CG3C50   CG3C51   NG3C51     9     0.000000     5.564720     3
   CG331   CG3C50   CG3C51   NG3C51     9   180.000000     0.753120     6
   CG331   CG3C50   CG3C51    OG311     9     0.000000     0.585760     3
   CG331   CG3C50   CG3C51   OG3C51     9   180.000000     0.000000     3
   CG331   CG3C50   CG3C51   OG3C51     9     0.000000     3.347200     6
   CG331   CG3C50   CG3C51     HGA1     9     0.000000     0.794960     3
   CG331   CG3C50   CG3C52   CG2R51     9   180.000000     4.267680     3
   CG331   CG3C50   CG3C52   CG2R51     9     0.000000     2.050160     4
   CG331   CG3C50   CG3C52   CG2R51     9     0.000000     3.012480     6
   CG331   CG3C50   CG3C52   CG2R52     9     0.000000     8.619040     2
   CG331   CG3C50   CG3C52   CG2R52     9   180.000000     0.460240     3
   CG331   CG3C50   CG3C52   CG2R52     9     0.000000     0.167360     4
   CG331   CG3C50   CG3C52   CG2R52     9   180.000000     0.878640     6
   CG331   CG3C50   CG3C52   CG2R53     9   180.000000     0.000000     2
   CG331   CG3C50   CG3C52   CG2R53     9     0.000000     3.932960     3
   CG331   CG3C50   CG3C52   CG2R53     9   180.000000     6.652560     4
   CG331   CG3C50   CG3C52   CG2R53     9   180.000000     1.673600     6
   CG331   CG3C50   CG3C52   CG3C50     9     0.000000     0.794960     3
   CG331   CG3C50   CG3C52   CG3C51     9     0.000000     0.794960     3
   CG331   CG3C50   CG3C52   CG3C52     9     0.000000     0.418400     3
   CG331   CG3C50   CG3C52   CG3C52     9     0.000000     1.213360     6
   CG331   CG3C50   CG3C52   NG2R50     9   180.000000     1.297040     2
   CG331   CG3C50   CG3C52   NG2R50     9     0.000000    25.480560     6
   CG331   CG3C50   CG3C52   NG2R51     9   180.000000    12.217280     2
   CG331   CG3C50   CG3C52   NG3C51     9     0.000000     0.000000     3
   CG331   CG3C50   CG3C52     HGA2     9     0.000000     0.000000     3
   CG331   CG3C50   CG3C54   NG2R52     9   180.000000     1.799120     2
   CG331   CG3C50   CG3C54    NG3P2     9     0.000000     0.000000     3
   CG331   CG3C50   CG3C54     HGA2     9     0.000000     0.794960     3
   CG331   CG3C50   CG3RC1    CG321     9     0.000000     0.836800     3
   CG331   CG3C50   CG3RC1   CG3C52     9   180.000000     0.167360     2
   CG331   CG3C50   CG3RC1   CG3C52     9     0.000000     0.502080     3
   CG331   CG3C50   CG3RC1   CG3RC1     9     0.000000     0.836800     3
   CG331   CG3C50   CG3RC1     HGA1     9     0.000000     0.627600     3
   CG331   CG3C50   NG2R51   CG2R53     9   180.000000     0.836800     3
   CG331   CG3C50   NG2R51   CG2RC0     9     0.000000     0.041840     3
   CG331   CG3C50   NG2R52   CG2R53     9   180.000000     1.004160     3
   CG331   CG3C50   NG2R52    CG334     9     0.000000     3.598240     3
   CG331   CG3C50   NG2R53   CG2R53     9   180.000000     7.029120     2
   CG331   CG3C50   NG2R53   CG2R53     9     0.000000     2.635920     3
   CG331   CG3C50   NG2R53     HGP1     9     0.000000     1.464400     2
   CG331   CG3C50   NG2R53     HGP1     9     0.000000     1.799120     3
   CG331   CG3C50   NG2R53     HGP1     9     0.000000     0.753120     6
   CG331   CG3C50    NG2S0    CG2O1     9   180.000000     0.000000     3
   CG331   CG3C50    NG2S0    CG2O6     9   180.000000     1.840960     3
   CG331   CG3C50    NG2S0   CG3C52     9   180.000000     3.096160     3
   CG331   CG3C50    NG2S0   NG2R50     9   180.000000    16.945200     2
   CG331   CG3C50    NG2S0   NG2R50     9   180.000000     3.096160     3
   CG331   CG3C50    NG321   HGPAM2     9   180.000000     1.087840     3
   CG331   CG3C50   NG3C51   CG2R53     9   180.000000     8.200640     3
   CG331   CG3C50   NG3C51   CG2R53     9     0.000000     0.920480     6
   CG331   CG3C50   NG3C51    CG331     9   180.000000     0.502080     3
   CG331   CG3C50   NG3C51    CG331     9     0.000000     0.209200     6
   CG331   CG3C50   NG3C51   CG3C50     9     0.000000    13.072908     3
   CG331   CG3C50   NG3C51   CG3C52     9     0.000000    13.054080     3
   CG331   CG3C50   NG3C51   NG2R50     9     0.000000    13.974560     3
   CG331   CG3C50   NG3C51    OG312     9     0.000000     1.862717     3
   CG331   CG3C50   NG3C51     HGP1     9     0.000000     1.673600     1
   CG331   CG3C50   NG3C51     HGP1     9   180.000000    11.254960     2
   CG331   CG3C50   NG3C51     HGP1     9     0.000000    12.342800     3
   CG331   CG3C50   NG3C51     HGP1     9     0.000000     0.878640     6
   CG331   CG3C50    NG3P3     HGP2     9     0.000000     2.970640     3
   CG331   CG3C50    OG311     HGP1     9     0.000000     2.175680     1
   CG331   CG3C50    OG311     HGP1     9     0.000000     1.882800     2
   CG331   CG3C50    OG311     HGP1     9     0.000000     4.351360     3
   CG331   CG3C50   OG3C51   CG251O     9     0.000000     2.928800     2
   CG331   CG3C50   OG3C51   CG251O     9     0.000000     2.050160     3
   CG331   CG3C50   OG3C51   CG252O     9     0.000000     2.928800     2
   CG331   CG3C50   OG3C51   CG252O     9     0.000000     2.050160     3
   CG331   CG3C50   OG3C51   CG2R53     9   180.000000     0.251040     2
   CG331   CG3C50   OG3C51   CG2R53     9   180.000000     2.761440     3
   CG331   CG3C50   OG3C51   CG2RC0     9     0.000000     2.426720     2
   CG331   CG3C50   OG3C51   CG2RC0     9     0.000000     0.125520     3
   CG331   CG3C50   OG3C51   CG3C50     9     0.000000     2.510400     3
   CG331   CG3C50   OG3C51   CG3C51     9     0.000000     1.255200     3
   CG331   CG3C50   OG3C51   CG3RC1     9   180.000000     3.640080     3
   CG331   CG3C50   OG3C51   CG3RC1     9     0.000000     1.924640     6
   CG331   CG3C50    SG311   CG2R53     9     0.000000     1.464400     1
   CG331   CG3C50    SG311   CG2R53     9   180.000000     2.886960     2
   CG331   CG3C50    SG311   CG2R53     9   180.000000     2.343040     3
   CG331   CG3C50    SG3O2   CG3C52     9   180.000000     0.000000     1
   CG331   CG3C50    SG3O2   CG3C52     9     0.000000     8.577200     2
   CG331   CG3C50    SG3O2   CG3C52     9     0.000000     0.711280     3
   CG331   CG3C50    SG3O2    OG2P1     9   180.000000     1.004160     3
   CG331   CG3C51   CG3C51    CG331     9   180.000000     3.807440     3
   CG331   CG3C51   CG3C51    CG331     9     0.000000     2.343040     4
   CG331   CG3C51   CG3C51   CG3C51     9     0.000000     0.794960     3
   CG331   CG3C51   CG3C51   CG3C52     9     0.000000     0.794960     3
   CG331   CG3C51   CG3C51   CG3C54     9     0.000000     0.000000     2
   CG331   CG3C51   CG3C51   CG3C54     9     0.000000     3.974800     3
   CG331   CG3C51   CG3C51   NG2R51     9   180.000000     1.255200     2
   CG331   CG3C51   CG3C51   NG2R51     9     0.000000     5.732080     3
   CG331   CG3C51   CG3C51    NG321     9   180.000000     1.255200     3
   CG331   CG3C51   CG3C51    OG303     9   180.000000     3.347200     3
   CG331   CG3C51   CG3C51    OG311     9     0.000000     0.585760     3
   CG331   CG3C51   CG3C51   OG3C51     9   180.000000    16.568640     2
   CG331   CG3C51   CG3C51   OG3C51     9   180.000000    11.798880     3
   CG331   CG3C51   CG3C51    SG311     9     0.000000     0.836800     2
   CG331   CG3C51   CG3C51    SG311     9   180.000000     1.882800     3
   CG331   CG3C51   CG3C51     FGA1     9     0.000000     4.058480     2
   CG331   CG3C51   CG3C51     FGA1     9   180.000000     1.255200     3
   CG331   CG3C51   CG3C51     HGA1     9     0.000000     0.794960     3
   CG331   CG3C51   CG3C51     HGA6     9     0.000000     0.794960     3
   CG331   CG3C51   CG3C52    CG2O5     9     0.000000     0.585760     2
   CG331   CG3C51   CG3C52    CG2O5     9   180.000000     2.552240     3
   CG331   CG3C51   CG3C52   CG2R51     9     0.000000     1.757280     3
   CG331   CG3C51   CG3C52   CG2R51     9   180.000000     2.468560     4
   CG331   CG3C51   CG3C52   CG2R51     9   180.000000     0.962320     6
   CG331   CG3C51   CG3C52   CG2R53     9     0.000000     1.757280     3
   CG331   CG3C51   CG3C52   CG2R53     9   180.000000     2.468560     4
   CG331   CG3C51   CG3C52   CG2R53     9   180.000000     0.962320     6
   CG331   CG3C51   CG3C52   CG2RC0     9     0.000000     1.764393     3
   CG331   CG3C51   CG3C52   CG2RC0     9   180.000000     2.474836     4
   CG331   CG3C51   CG3C52   CG2RC0     9   180.000000     0.962738     6
   CG331   CG3C51   CG3C52   CG3C50     9     0.000000     0.794960     3
   CG331   CG3C51   CG3C52   CG3C51     9     0.000000     0.794960     3
   CG331   CG3C51   CG3C52   CG3C52     9     0.000000     0.794960     3
   CG331   CG3C51   CG3C52   CG3C53     9     0.000000     0.041840     3
   CG331   CG3C51   CG3C52   CG3C53     9     0.000000     7.573040     4
   CG331   CG3C51   CG3C52   CG3C54     9   180.000000    12.510160     2
   CG331   CG3C51   CG3C52   CG3C54     9   180.000000     5.188160     3
   CG331   CG3C51   CG3C52   CG3RC1     9     0.000000     0.794960     3
   CG331   CG3C51   CG3C52   NG2R51     9     0.000000     6.819920     2
   CG331   CG3C51   CG3C52   NG2R57     9   180.000000     3.012480     2
   CG331   CG3C51   CG3C52   NG2R57     9     0.000000     1.297040     6
   CG331   CG3C51   CG3C52    NG2S0     9   180.000000     2.092000     2
   CG331   CG3C51   CG3C52   NG3C51     9     0.000000     0.000000     3
   CG331   CG3C51   CG3C52   OG3C51     9     0.000000     6.401520     2
   CG331   CG3C51   CG3C52   OG3C51     9     0.000000     1.548080     3
   CG331   CG3C51   CG3C52    SG311     9   180.000000     3.179840     3
   CG331   CG3C51   CG3C52     HGA2     9     0.000000     0.794960     3
   CG331   CG3C51   CG3C53    CG331     9   180.000000     0.000000     3
   CG331   CG3C51   CG3C53    CG331     9   180.000000     0.125520     4
   CG331   CG3C51   CG3C53    NG3P2     9     0.000000     8.368000     2
   CG331   CG3C51   CG3C53    NG3P2     9     0.000000     1.338880     3
   CG331   CG3C51   CG3C53     HGA1     9     0.000000     0.794960     3
   CG331   CG3C51   CG3C54    NG3P2     9     0.000000     1.087840     2
   CG331   CG3C51   CG3C54    NG3P2     9   180.000000     1.213360     3
   CG331   CG3C51   CG3C54     HGA2     9     0.000000     0.794960     3
   CG331   CG3C51   CG3RC1   CG2R52     9   180.000000     3.849280     2
   CG331   CG3C51   CG3RC1   CG2R52     9   180.000000     0.753120     3
   CG331   CG3C51   CG3RC1   CG2R52     9   180.000000     0.041840     4
   CG331   CG3C51   CG3RC1   CG2R52     9   180.000000     0.878640     6
   CG331   CG3C51   CG3RC1    CG321     9     0.000000     0.836800     3
   CG331   CG3C51   CG3RC1    CG331     9     0.000000     0.836800     3
   CG331   CG3C51   CG3RC1   CG3RC1     9     0.000000     0.836800     3
   CG331   CG3C51   CG3RC1     HGA1     9     0.000000     0.627600     3
   CG331   CG3C51   NG2R50   CG2R53     9   180.000000     4.602400     2
   CG331   CG3C51   NG2R50   CG2R53     9     0.000000     2.886960     3
   CG331   CG3C51   NG2R50   NG2R50     9     0.000000     5.941280     2
   CG331   CG3C51   NG2R50   NG2R50     9   180.000000     2.092000     3
   CG331   CG3C51   NG2R53   CG2R53     9     0.000000     0.502080     2
   CG331   CG3C51   NG2R53   CG2R53     9     0.000000     5.857600     3
   CG331   CG3C51   NG2R53    CG331     9     0.000000     3.974800     3
   CG331   CG3C51   NG2R53     HGP1     9     0.000000     1.840960     2
   CG331   CG3C51   NG2R53     HGP1     9   180.000000     1.882800     3
   CG331   CG3C51   NG2R57   CG2R57     9     0.000000     4.518720     2
   CG331   CG3C51   NG2R57   CG2R57     9     0.000000     2.175680     4
   CG331   CG3C51   NG2R57   CG3C52     9   180.000000     1.213360     3
   CG331   CG3C51   NG2R57   CG3C52     9     0.000000     4.100320     4
   CG331   CG3C51    NG2S0    CG2O1     9   180.000000     2.343040     2
   CG331   CG3C51    NG2S0    CG2O1     9   180.000000     6.778080     3
   CG331   CG3C51    NG2S0   CG2RC0     9   180.000000     5.815760     2
   CG331   CG3C51    NG2S0   CG2RC0     9   180.000000     6.317840     3
   CG331   CG3C51   NG3C51   CG2R62     9     0.000000     1.673600     3
   CG331   CG3C51   NG3C51   CG2R62     9   180.000000     0.251040     4
   CG331   CG3C51   NG3C51   CG2R64     9   180.000000     0.460240     2
   CG331   CG3C51   NG3C51   CG2R64     9     0.000000     3.179840     3
   CG331   CG3C51   NG3C51   CG2RC0     9     0.000000     7.865920     2
   CG331   CG3C51   NG3C51   CG2RC0     9     0.000000     5.522880     3
   CG331   CG3C51   NG3C51    CG331     9   180.000000     4.602400     3
   CG331   CG3C51   NG3C51   CG3C51     9   180.000000     1.924640     3
   CG331   CG3C51   NG3C51   CG3C52     9     0.000000    13.054080     3
   CG331   CG3C51   NG3C51   NG2R50     9     0.000000     2.008320     3
   CG331   CG3C51   NG3C51   NG2R50     9   180.000000     3.012480     4
   CG331   CG3C51   NG3C51   NG2R53     9   180.000000     0.711280     2
   CG331   CG3C51   NG3C51   NG2R53     9   180.000000    11.380480     3
   CG331   CG3C51   NG3C51    SG3O2     9   180.000000     4.727920     3
   CG331   CG3C51   NG3C51     HGP1     9   180.000000     0.585760     1
   CG331   CG3C51   NG3C51     HGP1     9     0.000000     1.924640     2
   CG331   CG3C51   NG3C51     HGP1     9   180.000000     0.585760     3
   CG331   CG3C51   OG3C51   CG2R51     9   180.000000     1.213360     2
   CG331   CG3C51   OG3C51   CG2R51     9     0.000000     0.334720     3
   CG331   CG3C51   OG3C51   CG2R53     9   180.000000     8.368000     2
   CG331   CG3C51   OG3C51   CG2R53     9     0.000000     0.543920     3
   CG331   CG3C51   OG3C51   CG2RC0     9   180.000000    11.380480     2
   CG331   CG3C51   OG3C51   CG2RC0     9     0.000000     1.924640     3
   CG331   CG3C51   OG3C51   CG3C50     9     0.000000     1.255200     3
   CG331   CG3C51   OG3C51   CG3C51     9     0.000000     1.255200     3
   CG331   CG3C51   OG3C51   CG3C52     9     0.000000     1.255200     3
   CG331   CG3C51   OG3C51   CG3RC1     9     0.000000     1.255200     2
   CG331   CG3C51   OG3C51   CG3RC1     9   180.000000     0.543920     3
   CG331   CG3C51    SG311   CG2R53     9   180.000000     1.464400     1
   CG331   CG3C51    SG311   CG2R53     9     0.000000     0.000000     2
   CG331   CG3C51    SG311   CG2R53     9   180.000000     1.213360     3
   CG331   CG3C51    SG3O2   CG3C52     9     0.000000     0.292880     1
   CG331   CG3C51    SG3O2   CG3C52     9     0.000000     0.543920     2
   CG331   CG3C51    SG3O2   CG3C52     9     0.000000     0.209200     3
   CG331   CG3C51    SG3O2    OG2P1     9     0.000000     0.669440     3
   CG331   CG3C53   CG3RC1   CG2R53     9     0.000000     7.238320     2
   CG331   CG3C53   CG3RC1   CG2R53     9   180.000000     2.343040     3
   CG331   CG3C53   CG3RC1   CG2R53     9     0.000000     3.054320     4
   CG331   CG3C53   CG3RC1   CG2R53     9   180.000000     1.129680     6
   CG331   CG3C53   CG3RC1   CG3RC1     9     0.000000     0.836800     3
   CG331   CG3C53   CG3RC1     HGA1     9     0.000000     0.627600     3
   CG331   CG3C53   NG2R50   NG2R50     9     0.000000     4.686080     2
   CG331   CG3C53   NG2R50   NG2R50     9     0.000000     0.125520     3
   CG331   CG3C53   NG2R52   CG2RC0     9   180.000000     0.627600     1
   CG331   CG3C53   NG2R52   CG2RC0     9     0.000000     4.518720     2
   CG331   CG3C53   NG2R52   CG2RC0     9   180.000000     0.962320     3
   CG331   CG3C53   NG2R52     HGP2     9     0.000000     1.882800     3
   CG331   CG3C53   NG3C51   CG2RC0     9     0.000000     1.171520     1
   CG331   CG3C53   NG3C51   CG2RC0     9     0.000000     1.840960     2
   CG331   CG3C53   NG3C51   CG2RC0     9   180.000000     1.338880     3
   CG331   CG3C53   NG3C51     HGP1     9   180.000000     0.041840     2
   CG331   CG3C53   NG3C51     HGP1     9     0.000000     5.020800     3
   CG331   CG3C53    NG3P0   CG2R53     9     0.000000     2.635920     2
   CG331   CG3C53    NG3P0   CG2R53     9   180.000000     1.840960     3
   CG331   CG3C53    NG3P0    CG324     9     0.000000     0.878640     1
   CG331   CG3C53    NG3P0    CG324     9     0.000000     3.389040     3
   CG331   CG3C53    NG3P0    CG324     9   180.000000     1.213360     6
   CG331   CG3C53    NG3P2   CG3C53     9     0.000000     3.598240     3
   CG331   CG3C53    NG3P2   CG3C53     9     0.000000     2.510400     4
   CG331   CG3C53    NG3P2   CG3C54     9     0.000000     0.167360     2
   CG331   CG3C53    NG3P2   CG3C54     9     0.000000    13.179600     3
   CG331   CG3C53    NG3P2     HGP2     9     0.000000     0.292880     3
   CG331   CG3C53    NG3P2     HGP2     9   180.000000     0.000000     4
   CG331   CG3C53    NG3P2     HGP2     9   180.000000     0.125520     6
   CG331   CG3C53    SG311   CG3C52     9     0.000000     1.548080     1
   CG331   CG3C53    SG311   CG3C52     9     0.000000     0.000000     2
   CG331   CG3C53    SG311   CG3C52     9   180.000000     0.878640     3
   CG331   CG3RC1   CG3RC1   CG3C31     9     0.000000     0.627600     3
   CG331   CG3RC1   CG3RC1   CG3C52     9     0.000000     0.209200     3
   CG331   CG3RC1   CG3RC1   CG3RC1     9   180.000000     0.418400     3
   CG331   CG3RC1   CG3RC1   CG3RC1     9   180.000000     0.376560     6
   CG331   CG3RC1   CG3RC1   OG3C31     9     0.000000    10.711040     2
   CG331   CG3RC1   CG3RC1   OG3C31     9   180.000000    10.041600     4
   CG331   CG3RC1   CG3RC1     HGA1     9     0.000000     0.209200     3
   CG331   CG3RC1   NG2R53   CG2R53     9   180.000000     2.217520     2
   CG331   CG3RC1   NG2R53   CG2R53     9   180.000000     2.845120     3
   CG331   CG3RC1   NG2R53    CG321     9   180.000000     3.012480     2
   CG331   CG3RC1   NG2R53    CG321     9   180.000000     0.292880     3
   CG331   CG3RC1    NG2S0    CG2O1     9   180.000000     2.552240     2
   CG331   CG3RC1    NG2S0    CG2O1     9     0.000000     0.083680     3
   CG331   CG3RC1    NG2S0   CG3C51     9   180.000000     2.384880     2
   CG331   CG3RC1    NG2S0   CG3C51     9     0.000000     1.715440     3
   CG331   CG3RC1    NG311    CG321     9     0.000000    10.208960     1
   CG331   CG3RC1    NG311    CG321     9     0.000000     1.924640     3
   CG331   CG3RC1    NG311   HGPAM1     9     0.000000     0.000000     2
   CG331   CG3RC1    NG311   HGPAM1     9     0.000000     2.803280     3
   CG331   CG3RC1   OG3C31   CG3RC1     9   180.000000     3.221680     3
   CG331   CG3RC1   OG3C31   CG3RC1     9   180.000000     0.334720     4
   CG331   CG3RC1   OG3C51   CG3C52     9   180.000000     2.301200     2
   CG331   CG3RC1   OG3C51   CG3C52     9   180.000000     2.175680     3
   CG331   CG3RC1   OG3C61    CG321     9     0.000000     1.548080     1
   CG331   CG3RC1   OG3C61    CG321     9     0.000000     3.096160     2
   CG331   CG3RC1   OG3C61    CG321     9   180.000000     0.460240     3
   CG331   CG3RC1    SG311   CG3C52     9     0.000000     4.769760     1
   CG331   CG3RC1    SG311   CG3C52     9   180.000000     0.000000     2
   CG331   CG3RC1    SG311   CG3C52     9   180.000000     3.347200     3
   CG331   NG2R51   NG2R51    CG331     9   180.000000     3.807440     2
   CG331   NG2R51   SG2R50   CG2RC0     9   180.000000     9.079280     2
   CG331   NG2R53   NG2R53     HGP1     9   180.000000     0.083680     2
   CG331    NG2S0    NG2S1    CG2O1     9     0.000000     0.292880     1
   CG331    NG2S0    NG2S1    CG2O1     9   180.000000     5.313680     2
   CG331    NG2S0    NG2S1     HGP1     9     0.000000    18.158560     2
   CG331    NG2S0   OG3C61    CG311     9     0.000000     0.083680     2
   CG331    NG2S0   OG3C61    CG311     9     0.000000     1.213360     3
   CG331    NG2S3      PG0    OG2P1     9     0.000000     2.636338     3
   CG331    NG2S3      PG0    OG303     9     0.000000     4.674365     2
   CG331    NG2S3      PG0    OG303     9     0.000000     0.340996     3
   CG331    NG2S3      PG1    OG2P1     9     0.000000     1.673600     3
   CG331    NG2S3      PG1    OG2P1     9     0.000000     2.092000     4
   CG331    NG2S3      PG1    OG303     9     0.000000     7.949600     2
   CG331    NG2S3    SG3O1    OG2P1     9     0.000000     2.246808     3
   CG331    NG301    OG301    CG311     9     0.000000     1.924640     3
   CG331    NG301    OG301    CG311     9     0.000000     0.125520     6
   CG331    NG301   OG3C61    CG321     9   180.000000     6.861760     3
   CG331    NG311    SG3O2   CG2R61     9     0.000000     6.276000     2
   CG331    NG311    SG3O2   CG2R61     9     0.000000     2.092000     3
   CG331    NG311    SG3O2    CG331     9     0.000000     8.368000     2
   CG331    NG311    SG3O2    CG331     9     0.000000     0.836800     3
   CG331    NG311    SG3O2    NG311     9   180.000000     5.255104     1
   CG331    NG311    SG3O2    NG311     9     0.000000     2.610816     2
   CG331    NG311    SG3O2    NG311     9     0.000000     7.639984     3
   CG331    NG311    SG3O2    NG311     9   180.000000     0.895376     4
   CG331    NG311    SG3O2    NG311     9   180.000000     1.100392     6
   CG331    NG311    SG3O2    OG2P1     9     0.000000     0.836800     3
   CG331   NG3C51    NG3P2   CG2R51     9     0.000000     0.000000     3
   CG331   NG3C51    NG3P2   CG2R51     9   180.000000     0.836800     6
   CG331   NG3C51    NG3P2     HGP2     9     0.000000     1.506240     3
   CG331   NG3C51    NG3P2     HGP2     9     0.000000     0.041840     6
   CG331   NG3C51   OG3C51   CG3C52     9     0.000000     2.761440     2
   CG331   NG3C51   OG3C51   CG3C52     9     0.000000     0.878640     3
   CG331    NG3N1    NG3N1     HGP1     9     0.000000     0.627600     2
   CG331    NG3N1    NG3N1     HGP1     9   180.000000     0.376560     6
   CG331    OG301    OG311     HGP1     9     0.000000     1.673600     1
   CG331    OG301    OG311     HGP1     9     0.000000     4.811600     2
   CG331    OG301    OG311     HGP1     9     0.000000     0.502080     3
   CG331    OG301     CN7B     CN7B     9   180.000000     5.439200     2
   CG331    OG301     CN7B     CN7B     9     0.000000     1.673600     3
   CG331    OG301     CN7B      CN7     9   180.000000     6.694400     2
   CG331    OG301     CN7B      CN7     9     0.000000     1.255200     3
   CG331    OG301     CN7B      HN7     9     0.000000     4.184000     1
   CG331    OG301     CN7B      HN7     9   180.000000     6.694400     2
   CG331    OG301     CN7B      HN7     9     0.000000     1.673600     3
   CG331    OG303      PG0    CG331     9     0.000000     2.599101     2
   CG331    OG303      PG0    CG331     9   180.000000     0.105018     3
   CG331    OG303      PG0    NG2S3     9     0.000000     9.342454     1
   CG331    OG303      PG0    NG2S3     9     0.000000     1.170683     2
   CG331    OG303      PG0    NG2S3     9     0.000000     1.022988     3
   CG331    OG303      PG0    OG2P1     9     0.000000     0.418400     3
   CG331    OG303      PG0    OG303     9     0.000000     3.974800     2
   CG331    OG303      PG0    OG303     9     0.000000     2.092000     3
   CG331    OG303      PG0    OG311     9     0.000000     3.974800     2
   CG331    OG303      PG0    OG311     9     0.000000     2.092000     3
   CG331    OG303      PG1    NG2S3     9     0.000000     1.673600     1
   CG331    OG303      PG1    NG2S3     9     0.000000     1.087840     2
   CG331    OG303      PG1    NG2S3     9     0.000000     1.464400     3
   CG331    OG303      PG1    OG2P1     9     0.000000     0.418400     3
   CG331    OG303      PG1    OG303     9   180.000000     5.020800     1
   CG331    OG303      PG1    OG303     9   180.000000     0.418400     2
   CG331    OG303      PG1    OG303     9   180.000000     0.418400     3
   CG331    OG303      PG1    OG304     9   180.000000     5.020800     1
   CG331    OG303      PG1    OG304     9   180.000000     0.418400     2
   CG331    OG303      PG1    OG304     9   180.000000     0.418400     3
   CG331    OG303      PG1    OG311     9     0.000000     3.974800     2
   CG331    OG303      PG1    OG311     9     0.000000     2.092000     3
   CG331    OG303      PG2    OG2P1     9     0.000000     0.418400     3
   CG331    OG303      PG2    SG2P1     9     0.000000     1.673600     1
   CG331    OG303      PG2    SG2P1     9     0.000000     0.418400     3
   CG331    OG303      PG2    SG2P2     9   180.000000     1.882800     1
   CG331    OG303      PG2    SG2P2     9     0.000000     0.836800     2
   CG331    OG303      PG2    SG2P2     9     0.000000     0.418400     3
   CG331    OG303    SG3O1    OG2P1     9     0.000000     0.000000     3
   CG331    OG303    SG3O2    CG331     9   180.000000     4.602400     1
   CG331    OG303    SG3O2    CG331     9     0.000000     2.928800     2
   CG331    OG303    SG3O2    CG331     9     0.000000     1.255200     3
   CG331    OG303    SG3O2    NG321     9   180.000000     7.531200     1
   CG331    OG303    SG3O2    NG321     9     0.000000     2.092000     2
   CG331    OG303    SG3O2    NG321     9     0.000000     1.673600     3
   CG331    OG303    SG3O2    OG2P1     9     0.000000     1.255200     3
   CG331    SG301    SG301    CG331     9     0.000000     4.184000     1
   CG331    SG301    SG301    CG331     9     0.000000    17.154400     2
   CG331    SG301    SG301    CG331     9     0.000000     3.765600     3
  CG3C31    CG2D1    CG2D1     HGA4     9   180.000000     4.184000     2
  CG3C31    CG2O1    NG2S0    CG2O6     9   180.000000     6.861760     2
  CG3C31    CG2O1    NG2S0    CG331     9   180.000000    10.878400     2
  CG3C31    CG2O2    OG311     HGP1     9   180.000000     8.577200     2
  CG3C31    CG2O5    CG321    CG311     9     0.000000     3.138000     1
  CG3C31    CG2O5    CG321    CG311     9   180.000000     0.753120     2
  CG3C31    CG2O5    CG321    CG311     9     0.000000     0.292880     3
  CG3C31    CG2O5    CG321    CG311     9     0.000000     0.125520     6
  CG3C31    CG2O5    CG321     HGA2     9     0.000000     0.418400     3
  CG3C31   CG2R51   CG2R51   NG2R51     9   180.000000    12.552000     2
  CG3C31   CG2R51   CG2R52   NG2R50     9   180.000000    12.552000     2
  CG3C31   CG2R51   CG2R52    HGR52     9     0.000000     0.000000     2
  CG3C31   CG2R52   NG2R50   NG2R51     9   180.000000    15.899200     2
  CG3C31   CG2R53   NG2R50   CG2RC0     9   180.000000    23.012000     2
  CG3C31   CG2R53   NG2R52   CG2R51     9   180.000000     7.614880     2
  CG3C31   CG2R53   NG2R52    CG324     9   180.000000     0.920480     2
  CG3C31   CG2R53   NG2R52     HGP2     9   180.000000     3.891120     2
  CG3C31   CG2R53   NG2R53   CG2R53     9     0.000000     0.000000     2
  CG3C31   CG2R53   NG2R53    CG331     9   180.000000     5.606560     2
  CG3C31   CG2R53   SG2R50   CG2RC0     9     0.000000     0.000000     2
  CG3C31   CG2R61   CG2R61    NG2D1     9   180.000000    31.254480     2
  CG3C31   CG2R61   CG2R61    NG2S3     9   180.000000    23.388560     2
  CG3C31   CG2R61   CG2R61    HGR61     9   180.000000    10.041600     2
  CG3C31   CG2R61   CG2R61    HGR62     9   180.000000     4.727920     2
  CG3C31   CG2R61   CG2R62   CG2R63     9     0.000000     1.464400     2
  CG3C31   CG2R61   CG2R62   CG2R64     9   180.000000     1.548080     2
  CG3C31   CG2R61   CG2R66   CG2R61     9   180.000000    12.970400     2
  CG3C31   CG2R61   CG2R66   CG2R66     9   180.000000     5.857600     2
  CG3C31   CG2R61   CG2R66     FGR1     9   180.000000    11.715200     2
  CG3C31   CG2R62   NG2R61   CG2R62     9     0.000000     1.213360     2
  CG3C31   CG2R62   NG2R61     HGP1     9   180.000000     3.849280     2
  CG3C31   CG2R64   NG2R61   CG2R63     9     0.000000     0.041840     2
  CG3C31   CG2R64   NG2R61     HGP1     9   180.000000     2.886960     2
  CG3C31   CG2R64   NG2R62   CG2R62     9   180.000000    28.953280     2
  CG3C31    CG311    NG311    CG321     9     0.000000     0.041840     1
  CG3C31    CG311    NG311    CG321     9     0.000000     1.004160     2
  CG3C31    CG311    NG311    CG321     9     0.000000     0.251040     3
  CG3C31    CG311    NG311    CG321     9     0.000000     1.046000     4
  CG3C31    CG311    NG311   HGPAM1     9     0.000000     2.845120     3
  CG3C31    CG321    CG321   OG3C61     9   180.000000     0.794960     1
  CG3C31    CG321    CG321   OG3C61     9   180.000000     4.184000     2
  CG3C31    CG321    CG321   OG3C61     9     0.000000     2.510400     3
  CG3C31    CG321    CG321   OG3C61     9   180.000000     0.334720     4
  CG3C31    CG321    CG321     HGA2     9     0.000000     0.669440     3
  CG3C31    CG321    CG331     HGA3     9     0.000000     0.669440     3
  CG3C31    CG321    NG2S0    CG2O1     9     0.000000     7.531200     1
  CG3C31    CG321    NG2S0    CG321     9     0.000000     5.899440     1
  CG3C31    CG321    NG2S0    CG321     9     0.000000     5.355520     2
  CG3C31    CG321    NG301    CG321     9   180.000000     5.941280     1
  CG3C31    CG321    NG301    CG321     9     0.000000     3.430880     2
  CG3C31    CG321    NG301    CG321     9     0.000000     4.267680     3
  CG3C31    CG321    NG301    CG331     9   180.000000     5.941280     1
  CG3C31    CG321    NG301    CG331     9     0.000000     3.430880     2
  CG3C31    CG321    NG301    CG331     9     0.000000     4.267680     3
  CG3C31    CG321    NG311    CG321     9     0.000000     0.167360     1
  CG3C31    CG321    NG311    CG321     9   180.000000     3.640080     2
  CG3C31    CG321    NG311    CG321     9     0.000000     1.715440     3
  CG3C31    CG321    NG311   HGPAM1     9     0.000000     1.255200     3
  CG3C31    CG321   OG3C61    CG321     9   180.000000     2.217520     1
  CG3C31    CG321   OG3C61    CG321     9     0.000000     2.845120     2
  CG3C31    CG321   OG3C61    CG321     9   180.000000     0.878640     3
  CG3C31    CG321   OG3C61    CG321     9     0.000000     0.627600     4
  CG3C31    CG324    NG3P1    CG324     9     0.000000     0.418400     3
  CG3C31    CG324    NG3P1    CG334     9     0.000000     0.418400     3
  CG3C31    CG324    NG3P1     HGP2     9     0.000000     0.418400     3
  CG3C31    CG324    NG3P2    CG324     9     0.000000     1.673600     1
  CG3C31    CG324    NG3P2    CG324     9     0.000000     1.046000     2
  CG3C31    CG324    NG3P2    CG324     9     0.000000     2.510400     3
  CG3C31    CG324    NG3P2     HGP2     9     0.000000     0.418400     3
  CG3C31    CG324    NG3P3     HGP2     9     0.000000     0.418400     3
  CG3C31   CG3C31   CG3C31   CG3C50     9   180.000000     0.209200     3
  CG3C31   CG3C31   CG3C31   CG3C50     9     0.000000     0.000000     6
  CG3C31   CG3C31   CG3C31   CG3C52     9   180.000000     5.020800     3
  CG3C31   CG3C31   CG3C31   CG3C52     9   180.000000     0.585760     6
  CG3C31   CG3C31   CG3C31   CG3C54     9     0.000000     0.418400     6
  CG3C31   CG3C31   CG3C31   NG2R52     9   180.000000    18.367760     3
  CG3C31   CG3C31   CG3C31   NG2R52     9     0.000000     4.811600     6
  CG3C31   CG3C31   CG3C31   NG2R53     9     0.000000     5.230000     2
  CG3C31   CG3C31   CG3C31   NG2R53     9   180.000000    11.547840     3
  CG3C31   CG3C31   CG3C31    NG2S0     9   180.000000    13.221440     3
  CG3C31   CG3C31   CG3C31    NG301     9   180.000000    20.292400     3
  CG3C31   CG3C31   CG3C31    NG301     9   180.000000     1.757280     6
  CG3C31   CG3C31   CG3C31    NG311     9   180.000000    19.915840     3
  CG3C31   CG3C31   CG3C31    NG311     9   180.000000     0.083680     6
  CG3C31   CG3C31   CG3C31    NG321     9   180.000000     0.460240     2
  CG3C31   CG3C31   CG3C31    NG321     9   180.000000    10.627360     6
  CG3C31   CG3C31   CG3C31    NG3P1     9     0.000000     0.251040     2
  CG3C31   CG3C31   CG3C31    NG3P1     9   180.000000     5.941280     6
  CG3C31   CG3C31   CG3C31    NG3P3     9     0.000000    13.012240     2
  CG3C31   CG3C31   CG3C31    NG3P3     9   180.000000     0.000000     3
  CG3C31   CG3C31   CG3C31    NG3P3     9     0.000000     4.769760     6
  CG3C31   CG3C31   CG3C31    OG301     9   180.000000     9.790560     3
  CG3C31   CG3C31   CG3C31    OG301     9   180.000000     4.895280     6
  CG3C31   CG3C31   CG3C31   OG3C61     9   180.000000     0.125520     2
  CG3C31   CG3C31   CG3C31   OG3C61     9   180.000000     9.706880     6
  CG3C31   CG3C31   CG3C31    SG3O2     9   180.000000     0.000000     2
  CG3C31   CG3C31   CG3C31    SG3O2     9   180.000000     0.292880     6
  CG3C31   CG3C31   CG3C31     HGA1     9     0.000000     0.418400     6
  CG3C31   CG3C31   CG3C31     HGA2     9     0.000000     0.418400     6
  CG3C31   CG3C31   CG3C50   CG2RC0     9     0.000000     2.384880     3
  CG3C31   CG3C31   CG3C50   CG2RC0     9     0.000000     1.004160     6
  CG3C31   CG3C31   CG3C50   CG3C52     9     0.000000     1.464400     3
  CG3C31   CG3C31   CG3C50   CG3C52     9   180.000000     0.878640     6
  CG3C31   CG3C31   CG3C50    OG311     9     0.000000     1.297040     3
  CG3C31   CG3C31   CG3C50    OG311     9   180.000000     0.125520     6
  CG3C31   CG3C31   CG3C51   CG3C51     9     0.000000     4.686080     3
  CG3C31   CG3C31   CG3C51   CG3C51     9     0.000000     0.125520     6
  CG3C31   CG3C31   CG3C51   OG3C51     9     0.000000     5.230000     3
  CG3C31   CG3C31   CG3C51   OG3C51     9   180.000000     0.376560     6
  CG3C31   CG3C31   CG3C51     HGA1     9     0.000000     0.000000     1
  CG3C31   CG3C31   CG3C51     HGA1     9     0.000000     0.000000     3
  CG3C31   CG3C31   CG3C52   CG3C54     9   180.000000     0.292880     3
  CG3C31   CG3C31   CG3C52   CG3C54     9   180.000000     1.882800     4
  CG3C31   CG3C31   CG3C52     HGA2     9     0.000000     0.000000     1
  CG3C31   CG3C31   CG3C52     HGA2     9     0.000000     0.000000     3
  CG3C31   CG3C31   CG3C54    NG3P2     9     0.000000     0.794960     3
  CG3C31   CG3C31   CG3C54    NG3P2     9   180.000000     4.435040     4
  CG3C31   CG3C31   CG3C54     HGA2     9     0.000000     0.000000     1
  CG3C31   CG3C31   CG3C54     HGA2     9     0.000000     0.000000     3
  CG3C31   CG3C31   NG2R52   CG2R53     9   180.000000     0.543920     3
  CG3C31   CG3C31   NG2R52   CG2R53     9     0.000000     1.380720     4
  CG3C31   CG3C31   NG2R52   CG2RC0     9     0.000000     0.669440     3
  CG3C31   CG3C31   NG2R52   CG2RC0     9   180.000000     0.711280     4
  CG3C31   CG3C31   NG2R53   CG2R53     9     0.000000     1.548080     2
  CG3C31   CG3C31   NG2R53   CG2R53     9   180.000000     2.259360     3
  CG3C31   CG3C31   NG2R53     HGP1     9   180.000000     1.213360     1
  CG3C31   CG3C31   NG2R53     HGP1     9   180.000000     1.506240     2
  CG3C31   CG3C31    NG2S0    CG2O1     9     0.000000     1.924640     3
  CG3C31   CG3C31    NG2S0    CG2O1     9     0.000000     1.004160     6
  CG3C31   CG3C31    NG2S0    CG311     9     0.000000     4.309520     3
  CG3C31   CG3C31    NG2S0    CG311     9   180.000000     0.251040     6
  CG3C31   CG3C31    NG301    CG321     9   180.000000     2.343040     1
  CG3C31   CG3C31    NG301    CG321     9   180.000000     0.083680     3
  CG3C31   CG3C31    NG301    CG321     9     0.000000     0.878640     6
  CG3C31   CG3C31    NG301    CG331     9     0.000000     0.209200     1
  CG3C31   CG3C31    NG301    CG331     9   180.000000     6.150480     3
  CG3C31   CG3C31    NG301    CG331     9   180.000000     0.083680     6
  CG3C31   CG3C31    NG311    CG321     9   180.000000    27.447040     1
  CG3C31   CG3C31    NG311    CG321     9   180.000000     1.338880     3
  CG3C31   CG3C31    NG311    CG321     9   180.000000     0.334720     6
  CG3C31   CG3C31    NG311   HGPAM1     9     0.000000     2.594080     2
  CG3C31   CG3C31    NG311   HGPAM1     9   180.000000     1.631760     6
  CG3C31   CG3C31    NG321   HGPAM2     9     0.000000     5.983120     3
  CG3C31   CG3C31    NG321   HGPAM2     9     0.000000     0.125520     6
  CG3C31   CG3C31    NG3P1    CG324     9   180.000000    13.849040     1
  CG3C31   CG3C31    NG3P1    CG324     9   180.000000     3.138000     3
  CG3C31   CG3C31    NG3P1    CG324     9   180.000000     1.589920     6
  CG3C31   CG3C31    NG3P1    CG334     9   180.000000     1.046000     1
  CG3C31   CG3C31    NG3P1    CG334     9   180.000000     0.711280     3
  CG3C31   CG3C31    NG3P1    CG334     9     0.000000     3.138000     6
  CG3C31   CG3C31    NG3P1     HGP2     9     0.000000     1.004160     3
  CG3C31   CG3C31    NG3P1     HGP2     9   180.000000     1.046000     6
  CG3C31   CG3C31    NG3P2     HGP2     9   180.000000    12.300960     3
  CG3C31   CG3C31    NG3P3     HGP2     9     0.000000     3.807440     3
  CG3C31   CG3C31    NG3P3     HGP2     9   180.000000     0.000000     6
  CG3C31   CG3C31    OG301    CG331     9   180.000000     5.983120     1
  CG3C31   CG3C31    OG301    CG331     9   180.000000     2.008320     2
  CG3C31   CG3C31    OG301    CG331     9     0.000000     6.276000     3
  CG3C31   CG3C31    OG301    CG331     9   180.000000     0.167360     6
  CG3C31   CG3C31   OG3C61    CG321     9   180.000000    16.443120     1
  CG3C31   CG3C31   OG3C61    CG321     9     0.000000     0.000000     3
  CG3C31   CG3C31   OG3C61    CG321     9   180.000000     0.418400     6
  CG3C31   CG3C31    SG3O2    NG311     9     0.000000     0.000000     1
  CG3C31   CG3C31    SG3O2    NG311     9   180.000000     0.000000     2
  CG3C31   CG3C31    SG3O2    NG311     9   180.000000     0.000000     3
  CG3C31   CG3C31    SG3O2    NG311     9     0.000000     0.000000     6
  CG3C31   CG3C31    SG3O2    OG2P1     9     0.000000     0.000000     3
  CG3C31   CG3C31    SG3O2    OG2P1     9     0.000000     1.464400     6
  CG3C31   CG3C50   CG3C52   CG3C52     9     0.000000     4.225840     3
  CG3C31   CG3C50   CG3C52   CG3C52     9     0.000000     0.251040     6
  CG3C31   CG3C50   CG3C52     HGA2     9     0.000000     0.000000     3
  CG3C31   CG3C50    OG311     HGP1     9     0.000000     5.230000     1
  CG3C31   CG3C50    OG311     HGP1     9     0.000000     7.363840     2
  CG3C31   CG3C50    OG311     HGP1     9     0.000000     4.184000     3
  CG3C31   CG3C51   CG3C51   CG3RC1     9     0.000000     0.794960     3
  CG3C31   CG3C51   CG3C51    OG311     9     0.000000     0.585760     3
  CG3C31   CG3C51   CG3C51     HGA1     9     0.000000     0.794960     3
  CG3C31   CG3C51   OG3C51   CG3RC1     9     0.000000     7.154640     3
  CG3C31   CG3C51   OG3C51   CG3RC1     9     0.000000     2.552240     6
  CG3C31   CG3C52   CG3C54    NG3P2     9   180.000000     1.255200     2
  CG3C31   CG3C52   CG3C54    NG3P2     9     0.000000     3.598240     3
  CG3C31   CG3C52   CG3C54     HGA2     9     0.000000     0.000000     3
  CG3C31   CG3C54    NG3P2   CG3C54     9     0.000000     0.000000     2
  CG3C31   CG3C54    NG3P2   CG3C54     9     0.000000     1.882800     3
  CG3C31   CG3C54    NG3P2     HGP2     9     0.000000     0.543920     3
  CG3C31   CG3C54    NG3P2     HGP2     9     0.000000     0.000000     6
  CG3C31   CG3RC1   CG3RC1   CG3C31     9     0.000000     0.125520     3
  CG3C31   CG3RC1   CG3RC1   CG3C31     9   180.000000     1.464400     4
  CG3C31   CG3RC1   CG3RC1   CG3C51     9     0.000000    16.736000     3
  CG3C31   CG3RC1   CG3RC1   CG3C52     9     0.000000     0.627600     3
  CG3C31   CG3RC1   CG3RC1   CG3RC1     9     0.000000     0.209200     3
  CG3C31   CG3RC1   CG3RC1   NG2R51     9     0.000000     0.627600     3
  CG3C31   CG3RC1   CG3RC1   NG2R61     9     0.000000     0.627600     3
  CG3C31   CG3RC1   CG3RC1    NG321     9     0.000000     0.125520     1
  CG3C31   CG3RC1   CG3RC1    NG321     9     0.000000     0.083680     2
  CG3C31   CG3RC1   CG3RC1    NG321     9   180.000000    19.120880     3
  CG3C31   CG3RC1   CG3RC1    NG3P3     9   180.000000     0.460240     2
  CG3C31   CG3RC1   CG3RC1    NG3P3     9   180.000000     8.242480     3
  CG3C31   CG3RC1   CG3RC1   OG3R60     9     0.000000     3.640080     2
  CG3C31   CG3RC1   CG3RC1   OG3R60     9   180.000000     0.209200     3
  CG3C31   CG3RC1   CG3RC1     HGA1     9     0.000000     0.627600     3
  CG3C31   CG3RC1   NG2R51   CG2R53     9   180.000000     4.602400     1
  CG3C31   CG3RC1   NG2R51   CG2RC0     9     0.000000     1.255200     3
  CG3C31   CG3RC1   NG2R61   CG2R62     9   180.000000     0.000000     3
  CG3C31   CG3RC1   NG2R61   CG2R63     9     0.000000     1.255200     3
  CG3C31   CG3RC1    NG321   HGPAM2     9   180.000000     0.920480     3
  CG3C31   CG3RC1    NG321   HGPAM2     9   180.000000     0.041840     6
  CG3C31   CG3RC1    NG3P3     HGP2     9     0.000000     1.715440     3
  CG3C31   CG3RC1    NG3P3     HGP2     9   180.000000     0.000000     6
  CG3C31   CG3RC1   OG3R60   CG2R61     9     0.000000     2.845120     1
  CG3C31   CG3RC1   OG3R60   CG2R61     9   180.000000     2.217520     2
  CG3C31   CG3RC1   OG3R60   CG2R61     9     0.000000     1.715440     3
    HGA4    CG2D1    CG2D1     HGA4     9   180.000000     4.184000     2
    HGA4    CG2D1   CG2D1O    CG314     9   180.000000    33.430160     2
    HGA4    CG2D1   CG2D1O    CG331     9   180.000000    13.388800     2
    HGA4    CG2D1   CG2D1O    NG2S0     9   180.000000    26.275520     2
    HGA4    CG2D1   CG2D1O    NG301     9   180.000000     4.184000     2
    HGA4    CG2D1   CG2D1O    NG311     9   180.000000     4.184000     2
    HGA4    CG2D1   CG2D1O    NG3P1     9   180.000000    43.555440     2
    HGA4    CG2D1   CG2D1O    OG301     9   180.000000    33.472000     2
    HGA4    CG2D1   CG2D1O   OG3R60     9   180.000000    33.472000     2
    HGA4    CG2D1   CG2D1O     HGA4     9   180.000000     4.184000     2
    HGA4    CG2D1    CG2D2     HGA5     9   180.000000    21.756800     2
    HGA4    CG2D1   CG2D2O    CG314     9   180.000000    33.430160     2
    HGA4    CG2D1   CG2D2O    CG331     9   180.000000    13.388800     2
    HGA4    CG2D1   CG2D2O    NG2S0     9   180.000000    26.275520     2
    HGA4    CG2D1   CG2D2O    NG301     9   180.000000     4.184000     2
    HGA4    CG2D1   CG2D2O    NG311     9   180.000000     4.184000     2
    HGA4    CG2D1   CG2D2O    NG3P1     9   180.000000    43.555440     2
    HGA4    CG2D1   CG2D2O    OG301     9   180.000000    33.472000     2
    HGA4    CG2D1   CG2D2O   OG3R60     9   180.000000    33.472000     2
    HGA4    CG2D1   CG2D2O     HGA4     9   180.000000     4.184000     2
    HGA4    CG2D1    CG301    CG301     9     0.000000     0.502080     3
    HGA4    CG2D1    CG301    CG321     9     0.000000     0.502080     3
    HGA4    CG2D1    CG301    CG331     9     0.000000     0.502080     3
    HGA4    CG2D1    CG301    OG301     9     0.000000     0.000000     2
    HGA4    CG2D1    CG301    OG301     9   180.000000     6.736240     3
    HGA4    CG2D1    CG301    OG311     9     0.000000    10.501840     3
    HGA4    CG2D1    CG301   OG3C61     9     0.000000     0.418400     2
    HGA4    CG2D1    CG301   OG3C61     9   180.000000     0.627600     3
    HGA4    CG2D1    CG311    CG2D1     9     0.000000     0.000000     3
    HGA4    CG2D1    CG311   CG2DC1     9     0.000000     0.000000     3
    HGA4    CG2D1    CG311   CG2DC2     9     0.000000     0.000000     3
    HGA4    CG2D1    CG311    CG2O5     9   180.000000    13.723520     2
    HGA4    CG2D1    CG311    CG2O5     9     0.000000     3.096160     3
    HGA4    CG2D1    CG311    CG311     9     0.000000     0.502080     3
    HGA4    CG2D1    CG311    CG321     9     0.000000     0.502080     3
    HGA4    CG2D1    CG311    CG331     9     0.000000     0.502080     3
    HGA4    CG2D1    CG311    NG2S1     9     0.000000     5.815760     2
    HGA4    CG2D1    CG311    NG2S1     9     0.000000    10.752880     3
    HGA4    CG2D1    CG311    OG311     9     0.000000     0.836800     3
    HGA4    CG2D1    CG311     HGA1     9     0.000000     0.000000     3
    HGA4    CG2D1    CG314    CG2D1     9     0.000000     0.000000     3
    HGA4    CG2D1    CG314    NG3P3     9     0.000000     1.039724     3
    HGA4    CG2D1    CG314     HGA1     9     0.000000     0.000000     3
    HGA4    CG2D1    CG321    CG2D1     9     0.000000     0.000000     3
    HGA4    CG2D1    CG321   CG2DC1     9     0.000000     0.000000     3
    HGA4    CG2D1    CG321   CG2DC2     9     0.000000     0.000000     3
    HGA4    CG2D1    CG321    CG301     9     0.000000     0.000000     3
    HGA4    CG2D1    CG321    CG311     9     0.000000     0.000000     3
    HGA4    CG2D1    CG321    CG314     9     0.000000     1.924640     2
    HGA4    CG2D1    CG321    CG314     9   180.000000     3.891120     3
    HGA4    CG2D1    CG321    CG321     9     0.000000     0.502080     3
    HGA4    CG2D1    CG321    CG324     9     0.000000     1.087840     2
    HGA4    CG2D1    CG321    CG324     9   180.000000     9.916080     3
    HGA4    CG2D1    CG321    CG331     9     0.000000     0.502080     3
    HGA4    CG2D1    CG321   CG3C31     9     0.000000     0.502080     3
    HGA4    CG2D1    CG321   CG3C51     9   180.000000     9.790560     2
    HGA4    CG2D1    CG321   CG3C51     9   180.000000     1.924640     3
    HGA4    CG2D1    CG321   CG3RC1     9   180.000000     5.104480     2
    HGA4    CG2D1    CG321   CG3RC1     9     0.000000    11.840720     3
    HGA4    CG2D1    CG321    NG301     9     0.000000     1.087840     3
    HGA4    CG2D1    CG321    NG311     9     0.000000     1.087840     3
    HGA4    CG2D1    CG321    OG302     9     0.000000     1.171520     3
    HGA4    CG2D1    CG321    OG302     9     0.000000     6.024960     6
    HGA4    CG2D1    CG321    OG311     9     0.000000     0.836800     3
    HGA4    CG2D1    CG321   OG3C61     9     0.000000     0.000000     2
    HGA4    CG2D1    CG321   OG3C61     9     0.000000    14.225600     3
    HGA4    CG2D1    CG321    SG311     9     0.000000     0.836800     3
    HGA4    CG2D1    CG321    SG3O2     9   180.000000    20.125040     2
    HGA4    CG2D1    CG321    SG3O2     9     0.000000     1.506240     3
    HGA4    CG2D1    CG321     HGA2     9     0.000000     0.000000     3
    HGA4    CG2D1    CG321    OG303     9     0.000000     0.836800     3
    HGA4    CG2D1    CG324    NG3P1     9     0.000000     0.836800     3
    HGA4    CG2D1    CG324    NG3P2     9     0.000000     0.836800     3
    HGA4    CG2D1    CG324     HGA2     9     0.000000     0.000000     3
    HGA4    CG2D1    CG331     HGA3     9     0.000000     0.000000     3
    HGA4    CG2D1   CG3C31   CG3C31     9   180.000000    13.556160     3
    HGA4    CG2D1   CG3C31   CG3C31     9     0.000000     2.845120     4
    HGA4    CG2D1   CG3C31     HGA1     9     0.000000     0.000000     3
    HGA4    CG2D1   CG3C50    CG321     9     0.000000     0.334720     2
    HGA4    CG2D1   CG3C50    CG321     9   180.000000     0.669440     3
    HGA4    CG2D1   CG3C50    SG311     9   180.000000     0.000000     3
    HGA4    CG2D1   CG3C50    SG311     9   180.000000    11.589680     6
    HGA4    CG2D1   CG3C51   CG3C51     9   180.000000     0.251040     3
    HGA4    CG2D1   CG3C51   CG3C51     9   180.000000     4.267680     6
    HGA4    CG2D1   CG3C51   OG3C51     9     0.000000     0.543920     3
    HGA4    CG2D1   CG3C51   OG3C51     9     0.000000     5.732080     4
    HGA4    CG2D1   CG3C51     HGA1     9     0.000000     0.000000     3
    HGA4    CG2D1   CG3RC1   CG3C52     9     0.000000    17.321760     2
    HGA4    CG2D1   CG3RC1   CG3C52     9   180.000000     5.188160     3
    HGA4    CG2D1   CG3RC1    NG3P1     9   180.000000    17.112560     2
    HGA4    CG2D1   CG3RC1    NG3P1     9     0.000000     0.041840     3
    HGA4    CG2D1   CG3RC1     HGA1     9     0.000000     0.000000     3
    HGA4    CG2D1    NG2D1    CG321     9   180.000000    35.564000     2
    HGA4    CG2D1    NG2D1    CG331     9   180.000000    35.564000     2
    HGA4    CG2D1    NG2D1    NG2S1     9   180.000000    16.736000     2
    HGA4    CG2D1      CT1        C     9     0.000000     0.020920     3
    HGA4    CG2D1      CT1      NH1     9     0.000000     0.231375     3
    HGA4   CG2D1O   CG2D1O     HGA4     9     0.000000     0.000000     2
    HGA4   CG2D1O    CG2D2     HGA5     9   180.000000     8.368000     2
    HGA4   CG2D1O   CG2DC1   CG2DC2     9   180.000000    25.104000     2
    HGA4   CG2D1O   CG2DC1    CG2O1     9   180.000000     4.184000     2
    HGA4   CG2D1O   CG2DC1    CG2O3     9   180.000000     4.184000     2
    HGA4   CG2D1O   CG2DC1   CG2R61     9   180.000000    23.221200     2
    HGA4   CG2D1O   CG2DC1   CG2RC0     9   180.000000    25.104000     2
    HGA4   CG2D1O   CG2DC1    CG321     9   180.000000     4.184000     2
    HGA4   CG2D1O   CG2DC1    CG324     9   180.000000    24.141680     2
    HGA4   CG2D1O   CG2DC1     HGA4     9   180.000000    10.460000     2
    HGA4   CG2D1O    NG2D1   CG2DC1     9   180.000000    16.736000     2
    HGA4   CG2D1O    NG2D1    CG2N2     9   180.000000    16.736000     2
    HGA4   CG2D1O    NG2D1    NG2D1     9   180.000000     8.284320     2
    HGA4   CG2D1O    NG2P1   CG2R53     9     0.000000     5.899440     2
    HGA4   CG2D1O    NG2P1     HGP2     9     0.000000     0.000000     2
    HGA4   CG2D1O   NG2R61   CG2R63     9   180.000000     4.727920     1
    HGA4   CG2D1O   NG2R61   CG2R63     9     0.000000     0.543920     2
    HGA4   CG2D1O   NG2R61   CG2R64     9     0.000000     2.133840     1
    HGA4   CG2D1O   NG2R61   CG2R64     9   180.000000     4.937120     2
    HGA4   CG2D1O   NG2R61   CG2R64     9   180.000000     3.640080     3
    HGA4   CG2D1O    NG2S0    CG2O1     9   180.000000     2.970640     1
    HGA4   CG2D1O    NG2S0    CG2O1     9     0.000000     7.280160     2
    HGA4   CG2D1O    NG2S0    CG311     9   180.000000     6.485200     2
    HGA4   CG2D1O    NG2S1    CG2O1     9   180.000000     0.000000     1
    HGA4   CG2D1O    NG2S1    CG2O1     9   180.000000     0.000000     2
    HGA4   CG2D1O    NG2S1     HGP1     9   180.000000     4.518720     2
    HGA4   CG2D1O    NG301   CG2D1O     9   180.000000     0.418400     2
    HGA4   CG2D1O    NG301    CG311     9   180.000000    14.183760     2
    HGA4   CG2D1O    NG301    CG321     9   180.000000     2.217520     2
    HGA4   CG2D1O    NG301    CG331     9     0.000000     3.054320     2
    HGA4   CG2D1O    NG301   CG3C51     9   180.000000     0.418400     2
    HGA4   CG2D1O    NG301    OG311     9   180.000000     1.673600     2
    HGA4   CG2D1O    NG301    OG311     9   180.000000     0.209200     4
    HGA4   CG2D1O    NG311   CG2D1O     9   180.000000     0.418400     2
    HGA4   CG2D1O    NG311    CG311     9   180.000000    13.305120     2
    HGA4   CG2D1O    NG311    CG321     9     0.000000     0.000000     2
    HGA4   CG2D1O    NG311    SG3O2     9   180.000000     1.548080     2
    HGA4   CG2D1O    NG311    SG3O2     9     0.000000     0.083680     3
    HGA4   CG2D1O    NG311     HGP1     9   180.000000     0.418400     2
    HGA4   CG2D1O    NG311   HGPAM1     9   180.000000     0.418400     2
    HGA4   CG2D1O    NG321   HGPAM2     9     0.000000     0.669440     3
    HGA4   CG2D1O   NG3C51   CG2RC0     9   180.000000    13.932720     2
    HGA4   CG2D1O   NG3C51   CG3C52     9   180.000000     3.932960     2
    HGA4   CG2D1O   NG3C51   CG3C52     9     0.000000     2.761440     3
    HGA4   CG2D1O    NG3P1    CG324     9   180.000000     0.292880     2
    HGA4   CG2D1O    NG3P1     HGP2     9     0.000000     0.000000     2
    HGA4   CG2D1O    NG3P1     HGP2     9     0.000000     2.970640     3
    HGA4   CG2D1O    NG3P2    CG324     9     0.000000     0.000000     2
    HGA4   CG2D1O    NG3P2     HGP2     9   180.000000     6.610720     2
    HGA4   CG2D1O    NG3P2     HGP2     9     0.000000     1.297040     3
    HGA4   CG2D1O    OG301    CG321     9   180.000000     0.000000     2
    HGA4   CG2D1O    OG301    CG331     9   180.000000     0.000000     2
    HGA4   CG2D1O   OG3R60   CG2D1O     9   180.000000     0.000000     2
    HGA4   CG2D1O   OG3R60   CG2D2O     9   180.000000     0.000000     2
    HGA4   CG2D1O   OG3R60    CG301     9   180.000000     0.000000     2
    HGA4   CG2D1O   OG3R60    CG321     9   180.000000     0.000000     2
    HGA4   CG2D1O    SG311    CG311     9   180.000000     5.941280     2
    HGA4   CG2D2O   CG2D2O     HGA4     9     0.000000     0.000000     2
    HGA4   CG2D2O   CG2DC2   CG2DC1     9   180.000000    25.104000     2
    HGA4   CG2D2O   CG2DC2    CG2O1     9   180.000000     4.184000     2
    HGA4   CG2D2O   CG2DC2    CG2O3     9   180.000000     4.184000     2
    HGA4   CG2D2O   CG2DC2   CG2R61     9   180.000000    23.221200     2
    HGA4   CG2D2O   CG2DC2   CG2RC0     9   180.000000    25.104000     2
    HGA4   CG2D2O   CG2DC2    CG321     9   180.000000     4.184000     2
    HGA4   CG2D2O   CG2DC2    CG324     9   180.000000    24.141680     2
    HGA4   CG2D2O   CG2DC2     HGA4     9   180.000000    10.460000     2
    HGA4   CG2D2O    NG2D1   CG2DC2     9   180.000000    16.736000     2
    HGA4   CG2D2O    NG2D1    CG2N2     9   180.000000    16.736000     2
    HGA4   CG2D2O    NG2D1    NG2D1     9   180.000000     8.284320     2
    HGA4   CG2D2O    NG2P1   CG2R53     9     0.000000     5.899440     2
    HGA4   CG2D2O    NG2P1     HGP2     9     0.000000     0.000000     2
    HGA4   CG2D2O   NG2R61   CG2R63     9   180.000000     4.727920     1
    HGA4   CG2D2O   NG2R61   CG2R63     9     0.000000     0.543920     2
    HGA4   CG2D2O   NG2R61   CG2R64     9     0.000000     2.133840     1
    HGA4   CG2D2O   NG2R61   CG2R64     9   180.000000     4.937120     2
    HGA4   CG2D2O   NG2R61   CG2R64     9   180.000000     3.640080     3
    HGA4   CG2D2O    NG2S0    CG2O1     9   180.000000     2.970640     1
    HGA4   CG2D2O    NG2S0    CG2O1     9     0.000000     7.280160     2
    HGA4   CG2D2O    NG2S0    CG311     9   180.000000     6.485200     2
    HGA4   CG2D2O    NG2S1    CG2O1     9   180.000000     0.000000     1
    HGA4   CG2D2O    NG2S1    CG2O1     9   180.000000     0.000000     2
    HGA4   CG2D2O    NG2S1     HGP1     9   180.000000     4.518720     2
    HGA4   CG2D2O    NG301   CG2D2O     9   180.000000     0.418400     2
    HGA4   CG2D2O    NG301    CG311     9   180.000000    14.183760     2
    HGA4   CG2D2O    NG301    CG321     9   180.000000     2.217520     2
    HGA4   CG2D2O    NG301    CG331     9     0.000000     3.054320     2
    HGA4   CG2D2O    NG301   CG3C51     9   180.000000     0.418400     2
    HGA4   CG2D2O    NG301    OG311     9   180.000000     1.673600     2
    HGA4   CG2D2O    NG301    OG311     9   180.000000     0.209200     4
    HGA4   CG2D2O    NG311   CG2D2O     9   180.000000     0.418400     2
    HGA4   CG2D2O    NG311    CG311     9   180.000000    13.305120     2
    HGA4   CG2D2O    NG311    CG321     9     0.000000     0.000000     2
    HGA4   CG2D2O    NG311    SG3O2     9   180.000000     1.548080     2
    HGA4   CG2D2O    NG311    SG3O2     9     0.000000     0.083680     3
    HGA4   CG2D2O    NG311     HGP1     9   180.000000     0.418400     2
    HGA4   CG2D2O    NG311   HGPAM1     9   180.000000     0.418400     2
    HGA4   CG2D2O    NG321   HGPAM2     9     0.000000     0.669440     3
    HGA4   CG2D2O   NG3C51   CG2RC0     9   180.000000    13.932720     2
    HGA4   CG2D2O   NG3C51   CG3C52     9   180.000000     3.932960     2
    HGA4   CG2D2O   NG3C51   CG3C52     9     0.000000     2.761440     3
    HGA4   CG2D2O    NG3P1    CG324     9   180.000000     0.292880     2
    HGA4   CG2D2O    NG3P1     HGP2     9     0.000000     0.000000     2
    HGA4   CG2D2O    NG3P1     HGP2     9     0.000000     2.970640     3
    HGA4   CG2D2O    NG3P2    CG324     9     0.000000     0.000000     2
    HGA4   CG2D2O    NG3P2     HGP2     9   180.000000     6.610720     2
    HGA4   CG2D2O    NG3P2     HGP2     9     0.000000     1.297040     3
    HGA4   CG2D2O    OG301    CG321     9   180.000000     0.000000     2
    HGA4   CG2D2O    OG301    CG331     9   180.000000     0.000000     2
    HGA4   CG2D2O   OG3R60   CG2D1O     9   180.000000     0.000000     2
    HGA4   CG2D2O   OG3R60   CG2D2O     9   180.000000     0.000000     2
    HGA4   CG2D2O   OG3R60    CG301     9   180.000000     0.000000     2
    HGA4   CG2D2O   OG3R60    CG321     9   180.000000     0.000000     2
    HGA4   CG2D2O    SG311    CG311     9   180.000000     5.941280     2
    HGA4   CG2DC1   CG2DC1     HGA4     9   180.000000    21.756800     2
    HGA4   CG2DC1   CG2DC2   CG2D2O     9   180.000000     4.184000     2
    HGA4   CG2DC1   CG2DC2   CG2DC1     9   180.000000     7.326602     2
    HGA4   CG2DC1   CG2DC2   CG2DC2     9   180.000000     4.184000     2
    HGA4   CG2DC1   CG2DC2   CG2DC3     9   180.000000     4.184000     2
    HGA4   CG2DC1   CG2DC2    CG2O3     9   180.000000     4.267680     2
    HGA4   CG2DC1   CG2DC2    CG2O5     9   180.000000     4.248434     2
    HGA4   CG2DC1   CG2DC2    CG301     9   180.000000     4.184000     2
    HGA4   CG2DC1   CG2DC2    CG311     9   180.000000     4.184000     2
    HGA4   CG2DC1   CG2DC2    CG321     9   180.000000     4.184000     2
    HGA4   CG2DC1   CG2DC2    CG331     9   180.000000     4.184000     2
    HGA4   CG2DC1   CG2DC2    NG2D1     9   180.000000     3.771039     2
    HGA4   CG2DC1   CG2DC2    NG2P1     9   180.000000     4.184000     2
    HGA4   CG2DC1   CG2DC2     HGA4     9   180.000000     0.000000     2
    HGA4   CG2DC1   CG2DC2    HGR52     9   180.000000     0.000000     2
    HGA4   CG2DC1   CG2DC3     HGA5     9   180.000000    21.756800     2
    HGA4   CG2DC1    CG2N2    NG2P1     9   180.000000     9.288480     2
    HGA4   CG2DC1    CG2N2    NG2P1     9     0.000000     4.476880     3
    HGA4   CG2DC1    CG2O1    NG2D1     9   180.000000     1.255200     3
    HGA4   CG2DC1    CG2O1    NG2S0     9   180.000000     1.255200     3
    HGA4   CG2DC1    CG2O1    NG2S1     9   180.000000     1.255200     3
    HGA4   CG2DC1    CG2O1    OG2D1     9   180.000000     1.255200     3
    HGA4   CG2DC1    CG2O2    OG2D1     9   180.000000     0.000000     2
    HGA4   CG2DC1    CG2O2    OG302     9   180.000000     2.510400     2
    HGA4   CG2DC1    CG2O2    OG311     9   180.000000     1.083238     2
    HGA4   CG2DC1    CG2O3    OG2D2     9   180.000000     0.000000     2
    HGA4   CG2DC1    CG2O4    OG2D1     9   180.000000     0.000000     2
    HGA4   CG2DC1    CG2O4    HGR52     9   180.000000     0.000000     2
    HGA4   CG2DC1    CG2O5   CG2D1O     9   180.000000     9.863780     2
    HGA4   CG2DC1    CG2O5   CG2DC1     9   180.000000    12.962450     2
    HGA4   CG2DC1    CG2O5    CG2O5     9   180.000000     0.219660     2
    HGA4   CG2DC1    CG2O5   CG2R61     9   180.000000    12.635680     2
    HGA4   CG2DC1    CG2O5    CG311     9   180.000000     0.000000     2
    HGA4   CG2DC1    CG2O5    CG321     9   180.000000     0.000000     2
    HGA4   CG2DC1    CG2O5    CG331     9   180.000000     0.000000     2
    HGA4   CG2DC1    CG2O5    OG2D3     9   180.000000     0.000000     2
    HGA4   CG2DC1    CG2O5    SG2D1     9   180.000000     7.196480     2
    HGA4   CG2DC1    CG2O5    SG3O3     9   180.000000     8.116960     2
    HGA4   CG2DC1   CG2R51   CG2R51     9   180.000000     3.491966     2
    HGA4   CG2DC1   CG2R51   CG2RC0     9   180.000000     2.482786     2
    HGA4   CG2DC1   CG2R51   NG2R50     9   180.000000     0.023012     2
    HGA4   CG2DC1   CG2R51   NG2R51     9     0.000000     0.460240     2
    HGA4   CG2DC1   CG2R51   OG3C51     9   180.000000    12.635680     2
    HGA4   CG2DC1   CG2R52   CG2R51     9   180.000000     3.472720     2
    HGA4   CG2DC1   CG2R52   CG2R52     9   180.000000     3.472720     2
    HGA4   CG2DC1   CG2R52   NG2R50     9   180.000000     0.041840     2
    HGA4   CG2DC1   CG2R53   NG2R50     9   180.000000     2.928800     2
    HGA4   CG2DC1   CG2R53   NG2R52     9   180.000000     3.096160     2
    HGA4   CG2DC1   CG2R53   NG2R52     9     0.000000     1.046000     4
    HGA4   CG2DC1   CG2R53   SG2R50     9     0.000000     0.000000     2
    HGA4   CG2DC1   CG2R61   CG2R61     9   180.000000     2.510400     2
    HGA4   CG2DC1   CG2R61   CG2RC0     9   180.000000     2.510400     2
    HGA4   CG2DC1   CG2R61   NG2R60     9     0.000000     5.439200     1
    HGA4   CG2DC1   CG2R61   NG2R60     9     0.000000     0.000000     2
    HGA4   CG2DC1   CG2R61   NG2R61     9   180.000000     7.405680     2
    HGA4   CG2DC1   CG2R62   CG2R62     9   180.000000     2.510400     2
    HGA4   CG2DC1   CG2R62   CG2R63     9   180.000000     2.510400     2
    HGA4   CG2DC1   CG2RC0   CG2RC0     9   180.000000     2.510400     2
    HGA4   CG2DC1   CG2RC0    NG2D1     9   180.000000     2.510400     2
    HGA4   CG2DC1    CG301    CG301     9     0.000000     0.000000     2
    HGA4   CG2DC1    CG301    CG301     9   180.000000     6.108640     3
    HGA4   CG2DC1    CG301    CG321     9   180.000000     1.129680     3
    HGA4   CG2DC1    CG301    CG321     9     0.000000     0.418400     6
    HGA4   CG2DC1    CG301    CG331     9   180.000000     0.041840     2
    HGA4   CG2DC1    CG301    CG331     9     0.000000     1.171520     3
    HGA4   CG2DC1    CG301    NG311     9   180.000000     0.083680     2
    HGA4   CG2DC1    CG301    NG311     9   180.000000     0.920480     3
    HGA4   CG2DC1    CG301   OG3C61     9     0.000000     4.058480     3
    HGA4   CG2DC1    CG311    CG2D1     9     0.000000     8.451680     3
    HGA4   CG2DC1    CG311    CG2D1     9     0.000000     1.213360     6
    HGA4   CG2DC1    CG311   CG2DC1     9     0.000000     0.041840     2
    HGA4   CG2DC1    CG311   CG2DC1     9   180.000000     0.627600     3
    HGA4   CG2DC1    CG311    CG2O1     9     0.000000     0.292880     2
    HGA4   CG2DC1    CG311    CG2O1     9     0.000000     1.004160     3
    HGA4   CG2DC1    CG311    CG311     9   180.000000     4.727920     2
    HGA4   CG2DC1    CG311    CG311     9     0.000000     0.083680     3
    HGA4   CG2DC1    CG311    CG321     9   180.000000     1.464400     2
    HGA4   CG2DC1    CG311    CG321     9   180.000000     1.380720     3
    HGA4   CG2DC1    CG311    CG331     9   180.000000     1.255200     2
    HGA4   CG2DC1    CG311    CG331     9   180.000000     2.468560     3
    HGA4   CG2DC1    CG311   CG3RC1     9   180.000000     1.715440     3
    HGA4   CG2DC1    CG311   CG3RC1     9     0.000000    14.769520     6
    HGA4   CG2DC1    CG311    NG2S0     9     0.000000     2.761440     2
    HGA4   CG2DC1    CG311    NG2S0     9   180.000000    11.673360     3
    HGA4   CG2DC1    CG311    NG2S1     9   180.000000     6.819920     2
    HGA4   CG2DC1    CG311    NG2S1     9   180.000000     0.460240     3
    HGA4   CG2DC1    CG311    NG301     9   180.000000     0.083680     2
    HGA4   CG2DC1    CG311    NG301     9   180.000000     0.460240     3
    HGA4   CG2DC1    CG311    NG311     9     0.000000    30.250320     3
    HGA4   CG2DC1    CG311    OG311     9     0.000000     0.836800     3
    HGA4   CG2DC1    CG311   OG3R60     9     0.000000     0.836800     3
    HGA4   CG2DC1    CG311     HGA1     9     0.000000     0.836800     3
    HGA4   CG2DC1    CG314   CG2R61     9     0.000000     1.297040     2
    HGA4   CG2DC1    CG314   CG2R61     9   180.000000     1.004160     3
    HGA4   CG2DC1    CG314    NG2P1     9     0.000000     0.209200     2
    HGA4   CG2DC1    CG314    NG2P1     9     0.000000     0.251040     3
    HGA4   CG2DC1    CG314     HGA1     9     0.000000     0.836800     3
    HGA4   CG2DC1    CG321    CG314     9     0.000000     0.000000     2
    HGA4   CG2DC1    CG321    CG314     9   180.000000    14.644000     3
    HGA4   CG2DC1    CG321    CG321     9   180.000000     0.711280     2
    HGA4   CG2DC1    CG321    CG321     9   180.000000     2.301200     3
    HGA4   CG2DC1    CG321    CG324     9     0.000000     1.464400     2
    HGA4   CG2DC1    CG321    CG324     9     0.000000     1.171520     3
    HGA4   CG2DC1    CG321    NG301     9     0.000000     1.966480     2
    HGA4   CG2DC1    CG321    NG301     9   180.000000     1.255200     3
    HGA4   CG2DC1    CG321    NG311     9   180.000000     6.527040     2
    HGA4   CG2DC1    CG321    NG311     9     0.000000     1.506240     3
    HGA4   CG2DC1    CG321    OG311     9     0.000000     0.836800     3
    HGA4   CG2DC1    CG321   OG3C61     9     0.000000     0.836800     3
    HGA4   CG2DC1    CG321   OG3R60     9     0.000000     0.836800     3
    HGA4   CG2DC1    CG321    SG311     9   180.000000     5.648400     3
    HGA4   CG2DC1    CG321     HGA2     9     0.000000     0.836800     3
    HGA4   CG2DC1    CG324   NG2R52     9     0.000000     0.000000     2
    HGA4   CG2DC1    CG324   NG2R52     9   180.000000     0.543920     3
    HGA4   CG2DC1    CG324     HGA2     9     0.000000     0.836800     3
    HGA4   CG2DC1    CG331     HGA3     9     0.000000     0.000000     3
    HGA4   CG2DC1   CG3RC1   CG3RC1     9     0.000000     0.000000     2
    HGA4   CG2DC1   CG3RC1   CG3RC1     9     0.000000     1.548080     3
    HGA4   CG2DC1   CG3RC1   OG3C51     9   180.000000     1.799120     2
    HGA4   CG2DC1   CG3RC1   OG3C51     9     0.000000     0.251040     3
    HGA4   CG2DC1   CG3RC1     HGA1     9     0.000000     0.000000     3
    HGA4   CG2DC1    NG2D1   CG2D1O     9   180.000000    16.736000     2
    HGA4   CG2DC1    NG2D1    CG311     9   180.000000    15.397120     2
    HGA4   CG2DC1    NG2D1    CG321     9   180.000000    15.411764     2
    HGA4   CG2DC1    NG2D1    CG331     9   180.000000    18.395374     2
    HGA4   CG2DC1    NG2D1    NG2P1     9   180.000000    32.802560     2
    HGA4   CG2DC1    NG2D1    NG2S1     9   180.000000    16.736000     2
    HGA4   CG2DC2   CG2DC2     HGA4     9   180.000000    21.756800     2
    HGA4   CG2DC2   CG2DC3     HGA5     9   180.000000    21.756800     2
    HGA4   CG2DC2    CG2N2    NG2P1     9   180.000000     9.288480     2
    HGA4   CG2DC2    CG2N2    NG2P1     9     0.000000     4.476880     3
    HGA4   CG2DC2    CG2O1    NG2D1     9   180.000000     1.255200     3
    HGA4   CG2DC2    CG2O1    NG2S0     9   180.000000     1.255200     3
    HGA4   CG2DC2    CG2O1    NG2S1     9   180.000000     1.255200     3
    HGA4   CG2DC2    CG2O1    OG2D1     9   180.000000     1.255200     3
    HGA4   CG2DC2    CG2O2    OG2D1     9   180.000000     0.000000     2
    HGA4   CG2DC2    CG2O2    OG302     9   180.000000     2.510400     2
    HGA4   CG2DC2    CG2O2    OG311     9   180.000000     1.083238     2
    HGA4   CG2DC2    CG2O3    OG2D2     9   180.000000     0.000000     2
    HGA4   CG2DC2    CG2O4    OG2D1     9   180.000000     0.000000     2
    HGA4   CG2DC2    CG2O4    HGR52     9   180.000000     0.000000     2
    HGA4   CG2DC2    CG2O5   CG2D2O     9   180.000000     9.863780     2
    HGA4   CG2DC2    CG2O5   CG2DC2     9   180.000000    12.962450     2
    HGA4   CG2DC2    CG2O5    CG2O5     9   180.000000     0.219660     2
    HGA4   CG2DC2    CG2O5   CG2R61     9   180.000000    12.635680     2
    HGA4   CG2DC2    CG2O5    CG311     9   180.000000     0.000000     2
    HGA4   CG2DC2    CG2O5    CG321     9   180.000000     0.000000     2
    HGA4   CG2DC2    CG2O5    CG331     9   180.000000     0.000000     2
    HGA4   CG2DC2    CG2O5    OG2D3     9   180.000000     0.000000     2
    HGA4   CG2DC2    CG2O5    SG2D1     9   180.000000     7.196480     2
    HGA4   CG2DC2    CG2O5    SG3O3     9   180.000000     8.116960     2
    HGA4   CG2DC2   CG2R51   CG2R51     9   180.000000     3.491966     2
    HGA4   CG2DC2   CG2R51   CG2RC0     9   180.000000     2.482786     2
    HGA4   CG2DC2   CG2R51   NG2R50     9   180.000000     0.023012     2
    HGA4   CG2DC2   CG2R51   NG2R51     9     0.000000     0.460240     2
    HGA4   CG2DC2   CG2R51   OG3C51     9   180.000000    12.635680     2
    HGA4   CG2DC2   CG2R52   CG2R51     9   180.000000     3.472720     2
    HGA4   CG2DC2   CG2R52   CG2R52     9   180.000000     3.472720     2
    HGA4   CG2DC2   CG2R52   NG2R50     9   180.000000     0.041840     2
    HGA4   CG2DC2   CG2R53   NG2R50     9   180.000000     2.928800     2
    HGA4   CG2DC2   CG2R53   NG2R52     9   180.000000     3.096160     2
    HGA4   CG2DC2   CG2R53   NG2R52     9     0.000000     1.046000     4
    HGA4   CG2DC2   CG2R53   SG2R50     9     0.000000     0.000000     2
    HGA4   CG2DC2   CG2R61   CG2R61     9   180.000000     2.510400     2
    HGA4   CG2DC2   CG2R61   CG2RC0     9   180.000000     2.510400     2
    HGA4   CG2DC2   CG2R61   NG2R60     9     0.000000     5.439200     1
    HGA4   CG2DC2   CG2R61   NG2R60     9     0.000000     0.000000     2
    HGA4   CG2DC2   CG2R61   NG2R61     9   180.000000     7.405680     2
    HGA4   CG2DC2   CG2R62   CG2R62     9   180.000000     2.510400     2
    HGA4   CG2DC2   CG2R62   CG2R63     9   180.000000     2.510400     2
    HGA4   CG2DC2   CG2RC0   CG2RC0     9   180.000000     2.510400     2
    HGA4   CG2DC2   CG2RC0    NG2D1     9   180.000000     2.510400     2
    HGA4   CG2DC2    CG301    CG301     9     0.000000     0.000000     2
    HGA4   CG2DC2    CG301    CG301     9   180.000000     6.108640     3
    HGA4   CG2DC2    CG301    CG321     9   180.000000     1.129680     3
    HGA4   CG2DC2    CG301    CG321     9     0.000000     0.418400     6
    HGA4   CG2DC2    CG301    CG331     9   180.000000     0.041840     2
    HGA4   CG2DC2    CG301    CG331     9     0.000000     1.171520     3
    HGA4   CG2DC2    CG301    NG311     9   180.000000     0.083680     2
    HGA4   CG2DC2    CG301    NG311     9   180.000000     0.920480     3
    HGA4   CG2DC2    CG301   OG3C61     9     0.000000     4.058480     3
    HGA4   CG2DC2    CG311    CG2D1     9     0.000000     8.451680     3
    HGA4   CG2DC2    CG311    CG2D1     9     0.000000     1.213360     6
    HGA4   CG2DC2    CG311   CG2DC2     9     0.000000     0.041840     2
    HGA4   CG2DC2    CG311   CG2DC2     9   180.000000     0.627600     3
    HGA4   CG2DC2    CG311    CG2O1     9     0.000000     0.292880     2
    HGA4   CG2DC2    CG311    CG2O1     9     0.000000     1.004160     3
    HGA4   CG2DC2    CG311    CG311     9   180.000000     4.727920     2
    HGA4   CG2DC2    CG311    CG311     9     0.000000     0.083680     3
    HGA4   CG2DC2    CG311    CG321     9   180.000000     1.464400     2
    HGA4   CG2DC2    CG311    CG321     9   180.000000     1.380720     3
    HGA4   CG2DC2    CG311    CG331     9   180.000000     1.255200     2
    HGA4   CG2DC2    CG311    CG331     9   180.000000     2.468560     3
    HGA4   CG2DC2    CG311   CG3RC1     9   180.000000     1.715440     3
    HGA4   CG2DC2    CG311   CG3RC1     9     0.000000    14.769520     6
    HGA4   CG2DC2    CG311    NG2S0     9     0.000000     2.761440     2
    HGA4   CG2DC2    CG311    NG2S0     9   180.000000    11.673360     3
    HGA4   CG2DC2    CG311    NG2S1     9   180.000000     6.819920     2
    HGA4   CG2DC2    CG311    NG2S1     9   180.000000     0.460240     3
    HGA4   CG2DC2    CG311    NG301     9   180.000000     0.083680     2
    HGA4   CG2DC2    CG311    NG301     9   180.000000     0.460240     3
    HGA4   CG2DC2    CG311    NG311     9     0.000000    30.250320     3
    HGA4   CG2DC2    CG311    OG311     9     0.000000     0.836800     3
    HGA4   CG2DC2    CG311   OG3R60     9     0.000000     0.836800     3
    HGA4   CG2DC2    CG311     HGA1     9     0.000000     0.836800     3
    HGA4   CG2DC2    CG314   CG2R61     9     0.000000     1.297040     2
    HGA4   CG2DC2    CG314   CG2R61     9   180.000000     1.004160     3
    HGA4   CG2DC2    CG314    NG2P1     9     0.000000     0.209200     2
    HGA4   CG2DC2    CG314    NG2P1     9     0.000000     0.251040     3
    HGA4   CG2DC2    CG314     HGA1     9     0.000000     0.836800     3
    HGA4   CG2DC2    CG321    CG314     9     0.000000     0.000000     2
    HGA4   CG2DC2    CG321    CG314     9   180.000000    14.644000     3
    HGA4   CG2DC2    CG321    CG321     9   180.000000     0.711280     2
    HGA4   CG2DC2    CG321    CG321     9   180.000000     2.301200     3
    HGA4   CG2DC2    CG321    CG324     9     0.000000     1.464400     2
    HGA4   CG2DC2    CG321    CG324     9     0.000000     1.171520     3
    HGA4   CG2DC2    CG321    NG301     9     0.000000     1.966480     2
    HGA4   CG2DC2    CG321    NG301     9   180.000000     1.255200     3
    HGA4   CG2DC2    CG321    NG311     9   180.000000     6.527040     2
    HGA4   CG2DC2    CG321    NG311     9     0.000000     1.506240     3
    HGA4   CG2DC2    CG321    OG311     9     0.000000     0.836800     3
    HGA4   CG2DC2    CG321   OG3C61     9     0.000000     0.836800     3
    HGA4   CG2DC2    CG321   OG3R60     9     0.000000     0.836800     3
    HGA4   CG2DC2    CG321    SG311     9   180.000000     5.648400     3
    HGA4   CG2DC2    CG321     HGA2     9     0.000000     0.836800     3
    HGA4   CG2DC2    CG324   NG2R52     9     0.000000     0.000000     2
    HGA4   CG2DC2    CG324   NG2R52     9   180.000000     0.543920     3
    HGA4   CG2DC2    CG324     HGA2     9     0.000000     0.836800     3
    HGA4   CG2DC2    CG331     HGA3     9     0.000000     0.000000     3
    HGA4   CG2DC2   CG3RC1   CG3RC1     9     0.000000     0.000000     2
    HGA4   CG2DC2   CG3RC1   CG3RC1     9     0.000000     1.548080     3
    HGA4   CG2DC2   CG3RC1   OG3C51     9   180.000000     1.799120     2
    HGA4   CG2DC2   CG3RC1   OG3C51     9     0.000000     0.251040     3
    HGA4   CG2DC2   CG3RC1     HGA1     9     0.000000     0.000000     3
    HGA4   CG2DC2    NG2D1   CG2D2O     9   180.000000    16.736000     2
    HGA4   CG2DC2    NG2D1    CG311     9   180.000000    15.397120     2
    HGA4   CG2DC2    NG2D1    CG321     9   180.000000    15.411764     2
    HGA4   CG2DC2    NG2D1    CG331     9   180.000000    18.395374     2
    HGA4   CG2DC2    NG2D1    NG2P1     9   180.000000    32.802560     2
    HGA4   CG2DC2    NG2D1    NG2S1     9   180.000000    16.736000     2
    HGA4    CG2N2    NG2D1    CG324     9     0.000000     0.418400     2
    HGA4    CG2N2    NG2P1    CG2N1     9   180.000000    25.815280     2
    HGA4    CG2N2    NG2P1     HGP2     9     0.000000     2.217520     2
    HGA4   CG2RC0   CG2RC0     HGA4     9     0.000000    12.552000     2
    HGA4   CG2RC0   CG3RC1   CG3RC1     9   180.000000     1.255200     2
    HGA4   CG2RC0   CG3RC1     HGA1     9     0.000000     0.000000     3
    HGA4   CG2RC0    NG2D1   CG2RC0     9   180.000000    24.267200     2
   CG1T1    CG2D1    CG2D2     HGA5     9   180.000000    21.756800     2
   CG1T1    CG301    CG331     HGA3     9     0.000000     0.836800     3
   CG1T1    CG301    OG311     HGP1     9     0.000000     4.184000     1
   CG1T1    CG301    OG311     HGP1     9     0.000000     1.213360     2
   CG1T1    CG301    OG311     HGP1     9     0.000000     1.882800     3
   CG1T1    CG311    CG321    CG321     9     0.000000     0.836800     3
   CG1T1    CG311    CG321    NG301     9   180.000000     2.677760     3
   CG1T1    CG311    CG321     HGA2     9     0.000000     0.836800     3
   CG1T1    CG311    CG324    NG3P1     9     0.000000     0.041840     3
   CG1T1    CG311    CG324     HGA2     9     0.000000     0.836800     3
   CG1T1    CG321    CG321    CG321     9     0.000000     0.836800     3
   CG1T1    CG321    CG321    CG331     9     0.000000     0.836800     3
   CG1T1    CG321    CG321     HGA2     9     0.000000     0.815880     3
   CG1T1    CG321    CG331     HGA3     9     0.000000     0.815880     3
   CG2D1    CG2D1    CG301    CG301     9   180.000000     2.092000     1
   CG2D1    CG2D1    CG301    CG301     9   180.000000     5.439200     3
   CG2D1    CG2D1    CG301    CG311     9   180.000000     2.092000     1
   CG2D1    CG2D1    CG301    CG311     9   180.000000     5.439200     3
   CG2D1    CG2D1    CG301    CG321     9   180.000000     2.092000     1
   CG2D1    CG2D1    CG301    CG321     9   180.000000     5.439200     3
   CG2D1    CG2D1    CG301    CG331     9   180.000000     2.092000     1
   CG2D1    CG2D1    CG301    CG331     9   180.000000     5.439200     3
   CG2D1    CG2D1    CG301    OG311     9   180.000000     0.000000     1
   CG2D1    CG2D1    CG301    OG311     9     0.000000     0.125520     2
   CG2D1    CG2D1    CG301    OG311     9     0.000000     3.389040     3
   CG2D1    CG2D1    CG301   OG3C61     9   180.000000     2.133840     1
   CG2D1    CG2D1    CG301   OG3C61     9     0.000000     0.125520     2
   CG2D1    CG2D1    CG301   OG3C61     9     0.000000     1.589920     3
   CG2D1    CG2D1    CG311    CG2D1     9   180.000000     4.184000     1
   CG2D1    CG2D1    CG311    CG2D1     9     0.000000     0.418400     2
   CG2D1    CG2D1    CG311    CG2D1     9   180.000000     1.255200     3
   CG2D1    CG2D1    CG311   CG2DC1     9   180.000000     4.184000     1
   CG2D1    CG2D1    CG311   CG2DC1     9     0.000000     0.418400     2
   CG2D1    CG2D1    CG311   CG2DC1     9   180.000000     1.255200     3
   CG2D1    CG2D1    CG311   CG2DC2     9   180.000000     4.184000     1
   CG2D1    CG2D1    CG311   CG2DC2     9     0.000000     0.418400     2
   CG2D1    CG2D1    CG311   CG2DC2     9   180.000000     1.255200     3
   CG2D1    CG2D1    CG311    CG2O1     9     0.000000     4.811600     1
   CG2D1    CG2D1    CG311    CG2O1     9   180.000000     3.221680     2
   CG2D1    CG2D1    CG311    CG2O1     9   180.000000     3.807440     3
   CG2D1    CG2D1    CG311    CG2O5     9     0.000000     0.083680     1
   CG2D1    CG2D1    CG311    CG2O5     9     0.000000     0.000000     2
   CG2D1    CG2D1    CG311    CG2O5     9     0.000000     1.087840     3
   CG2D1    CG2D1    CG311   CG2R61     9     0.000000     1.506240     1
   CG2D1    CG2D1    CG311   CG2R61     9   180.000000     1.380720     2
   CG2D1    CG2D1    CG311   CG2R61     9   180.000000     1.004160     3
   CG2D1    CG2D1    CG311   CG2R61     9     0.000000     4.225840     6
   CG2D1    CG2D1    CG311    CG311     9   180.000000     2.510400     1
   CG2D1    CG2D1    CG311    CG321     9   180.000000     2.510400     1
   CG2D1    CG2D1    CG311    CG324     9     0.000000     1.799120     1
   CG2D1    CG2D1    CG311    CG324     9     0.000000     1.631760     2
   CG2D1    CG2D1    CG311    CG331     9   180.000000     2.510400     1
   CG2D1    CG2D1    CG311   CG3C50     9   180.000000     4.644240     1
   CG2D1    CG2D1    CG311   CG3C50     9     0.000000     1.422560     2
   CG2D1    CG2D1    CG311    NG2S1     9   180.000000     2.468560     1
   CG2D1    CG2D1    CG311    NG2S1     9     0.000000     0.334720     2
   CG2D1    CG2D1    CG311    NG2S1     9     0.000000    15.773680     3
   CG2D1    CG2D1    CG311    OG311     9   180.000000     7.949600     1
   CG2D1    CG2D1    CG311    OG311     9   180.000000     1.673600     2
   CG2D1    CG2D1    CG311    OG311     9   180.000000     2.510400     3
   CG2D1    CG2D1    CG311   OG3C61     9   180.000000     2.845120     1
   CG2D1    CG2D1    CG311   OG3C61     9     0.000000     0.794960     2
   CG2D1    CG2D1    CG311   OG3C61     9   180.000000     1.087840     3
   CG2D1    CG2D1    CG311   OG3C61     9   180.000000     0.836800     6
   CG2D1    CG2D1    CG311     HGA1     9   180.000000     1.255200     3
   CG2D1    CG2D1    CG314    CG2D1     9   180.000000     4.184000     1
   CG2D1    CG2D1    CG314    CG2D1     9     0.000000     0.418400     2
   CG2D1    CG2D1    CG314    CG2D1     9   180.000000     1.255200     3
   CG2D1    CG2D1    CG314    CG2D1     9     0.000000     0.836800     4
   CG2D1    CG2D1    CG314    NG3P3     9   180.000000     8.960873     1
   CG2D1    CG2D1    CG314     HGA1     9   180.000000     1.255200     3
   CG2D1    CG2D1    CG321    CG2D1     9   180.000000     4.184000     1
   CG2D1    CG2D1    CG321    CG2D1     9     0.000000     0.418400     2
   CG2D1    CG2D1    CG321    CG2D1     9   180.000000     1.255200     3
   CG2D1    CG2D1    CG321    CG2D1     9     0.000000     0.836800     4
   CG2D1    CG2D1    CG321    CG2O1     9     0.000000     0.836800     1
   CG2D1    CG2D1    CG321    CG2O1     9   180.000000     0.627600     2
   CG2D1    CG2D1    CG321    CG2O1     9     0.000000     1.464400     3
   CG2D1    CG2D1    CG321    CG2O1     9     0.000000     3.765600     4
   CG2D1    CG2D1    CG321    CG2O5     9     0.000000     1.380720     1
   CG2D1    CG2D1    CG321    CG2O5     9     0.000000     0.711280     2
   CG2D1    CG2D1    CG321    CG2O5     9     0.000000     4.476880     3
   CG2D1    CG2D1    CG321    CG2O5     9     0.000000     3.723760     4
   CG2D1    CG2D1    CG321    CG2O5     9     0.000000     1.171520     6
   CG2D1    CG2D1    CG321    CG301     9   180.000000     2.092000     1
   CG2D1    CG2D1    CG321    CG301     9   180.000000     5.439200     3
   CG2D1    CG2D1    CG321    CG311     9   180.000000     2.092000     1
   CG2D1    CG2D1    CG321    CG311     9   180.000000     5.439200     3
   CG2D1    CG2D1    CG321    CG314     9     0.000000     6.192320     1
   CG2D1    CG2D1    CG321    CG314     9   180.000000    12.803040     2
   CG2D1    CG2D1    CG321    CG321     9   180.000000     2.510400     1
   CG2D1    CG2D1    CG321    CG324     9     0.000000     0.669440     1
   CG2D1    CG2D1    CG321    CG324     9     0.000000     1.046000     2
   CG2D1    CG2D1    CG321    CG331     9   180.000000     3.765600     1
   CG2D1    CG2D1    CG321    CG331     9   180.000000     0.836800     2
   CG2D1    CG2D1    CG321   CG3C31     9   180.000000     2.510400     1
   CG2D1    CG2D1    CG321   CG3C51     9   180.000000     1.297040     1
   CG2D1    CG2D1    CG321   CG3C51     9   180.000000     1.715440     2
   CG2D1    CG2D1    CG321   CG3RC1     9   180.000000     0.000000     1
   CG2D1    CG2D1    CG321   CG3RC1     9   180.000000     7.363840     2
   CG2D1    CG2D1    CG321    NG2S0     9   180.000000     1.380720     1
   CG2D1    CG2D1    CG321    NG2S0     9     0.000000     0.083680     2
   CG2D1    CG2D1    CG321    NG2S0     9     0.000000     0.418400     3
   CG2D1    CG2D1    CG321    NG2S0     9     0.000000     0.627600     4
   CG2D1    CG2D1    CG321    NG301     9   180.000000     6.694400     1
   CG2D1    CG2D1    CG321    NG301     9     0.000000     1.255200     3
   CG2D1    CG2D1    CG321    NG311     9   180.000000     6.694400     1
   CG2D1    CG2D1    CG321    NG311     9     0.000000     1.255200     3
   CG2D1    CG2D1    CG321    OG302     9   180.000000     5.062640     1
   CG2D1    CG2D1    CG321    OG302     9     0.000000     0.083680     2
   CG2D1    CG2D1    CG321    OG302     9     0.000000     1.213360     3
   CG2D1    CG2D1    CG321    OG302     9   180.000000     0.543920     6
   CG2D1    CG2D1    CG321    OG311     9   180.000000     7.949600     1
   CG2D1    CG2D1    CG321    OG311     9   180.000000     1.673600     2
   CG2D1    CG2D1    CG321    OG311     9   180.000000     2.510400     3
   CG2D1    CG2D1    CG321   OG3C61     9   180.000000     0.292880     1
   CG2D1    CG2D1    CG321   OG3C61     9     0.000000     0.000000     2
   CG2D1    CG2D1    CG321   OG3C61     9   180.000000     4.811600     3
   CG2D1    CG2D1    CG321    SG311     9   180.000000     2.928800     1
   CG2D1    CG2D1    CG321    SG311     9   180.000000     5.857600     3
   CG2D1    CG2D1    CG321    SG3O2     9     0.000000    14.141920     1
   CG2D1    CG2D1    CG321    SG3O2     9     0.000000     0.000000     2
   CG2D1    CG2D1    CG321    SG3O2     9     0.000000    11.045760     3
   CG2D1    CG2D1    CG321     HGA2     9   180.000000     1.255200     3
   CG2D1    CG2D1    CG321    OG303     9   180.000000     7.949600     1
   CG2D1    CG2D1    CG321    OG303     9   180.000000     1.673600     2
   CG2D1    CG2D1    CG321    OG303     9   180.000000     2.510400     3
   CG2D1    CG2D1    CG324    NG3P1     9     0.000000     2.510400     1
   CG2D1    CG2D1    CG324    NG3P1     9     0.000000     3.430880     2
   CG2D1    CG2D1    CG324    NG3P2     9     0.000000     2.510400     1
   CG2D1    CG2D1    CG324    NG3P2     9     0.000000     3.430880     2
   CG2D1    CG2D1    CG324     HGA2     9   180.000000     1.255200     3
   CG2D1    CG2D1    CG331     HGA3     9   180.000000     1.255200     3
   CG2D1    CG2D1   CG3C31   CG3C31     9   180.000000     7.154640     1
   CG2D1    CG2D1   CG3C31   CG3C31     9   180.000000     0.753120     4
   CG2D1    CG2D1   CG3C31     HGA1     9   180.000000     0.000000     3
   CG2D1    CG2D1   CG3C50    CG321     9   180.000000     5.983120     1
   CG2D1    CG2D1   CG3C50    CG321     9   180.000000     6.276000     2
   CG2D1    CG2D1   CG3C50    SG311     9     0.000000     0.209200     1
   CG2D1    CG2D1   CG3C50    SG311     9     0.000000     1.840960     3
   CG2D1    CG2D1   CG3C50    SG311     9   180.000000     0.753120     6
   CG2D1    CG2D1   CG3C51   CG3C51     9     0.000000     8.451680     1
   CG2D1    CG2D1   CG3C51   CG3C51     9   180.000000     9.037440     2
   CG2D1    CG2D1   CG3C51   OG3C51     9   180.000000     0.376560     1
   CG2D1    CG2D1   CG3C51   OG3C51     9     0.000000     0.794960     2
   CG2D1    CG2D1   CG3C51   OG3C51     9   180.000000     2.677760     3
   CG2D1    CG2D1   CG3C51   OG3C51     9   180.000000     1.297040     4
   CG2D1    CG2D1   CG3C51     HGA1     9   180.000000     0.000000     3
   CG2D1    CG2D1   CG3C52   CG3C51     9     0.000000    12.510160     1
   CG2D1    CG2D1   CG3C52   CG3C51     9   180.000000     8.284320     3
   CG2D1    CG2D1   CG3C52   CG3C52     9     0.000000     7.656720     1
   CG2D1    CG2D1   CG3C52   CG3C52     9     0.000000     4.895280     3
   CG2D1    CG2D1   CG3C52     HGA2     9   180.000000     0.000000     3
   CG2D1    CG2D1   CG3RC1   CG3C52     9     0.000000     8.451680     1
   CG2D1    CG2D1   CG3RC1   CG3C52     9     0.000000    12.342800     2
   CG2D1    CG2D1   CG3RC1    NG3P1     9   180.000000     3.054320     1
   CG2D1    CG2D1   CG3RC1    NG3P1     9     0.000000     0.000000     2
   CG2D1    CG2D1   CG3RC1     HGA1     9   180.000000     0.000000     3
   CG2D1   CG2D1O    CG314    CG321     9   180.000000     1.589920     1
   CG2D1   CG2D1O    CG314    CG321     9     0.000000     0.251040     2
   CG2D1   CG2D1O    CG314    NG3P1     9     0.000000     8.409840     1
   CG2D1   CG2D1O    CG314    NG3P1     9     0.000000     4.267680     3
   CG2D1   CG2D1O    CG314     HGA1     9   180.000000     0.000000     3
   CG2D1   CG2D1O    CG321    CG321     9   180.000000     0.920480     1
   CG2D1   CG2D1O    CG321    CG321     9   180.000000     9.079280     2
   CG2D1   CG2D1O    CG321     HGA2     9   180.000000     0.000000     3
   CG2D1   CG2D1O    CG331     HGA3     9   180.000000     1.255200     3
   CG2D1   CG2D1O    NG2S0    CG2O1     9   180.000000     3.389040     1
   CG2D1   CG2D1O    NG2S0    CG2O1     9   180.000000    10.334480     2
   CG2D1   CG2D1O    NG2S0    CG331     9     0.000000     5.230000     1
   CG2D1   CG2D1O    NG2S0    CG331     9   180.000000    21.673120     2
   CG2D1   CG2D1O    NG2S1    CG2O1     9   180.000000    17.489120     1
   CG2D1   CG2D1O    NG2S1    CG2O1     9   180.000000     9.832400     2
   CG2D1   CG2D1O    NG2S1     HGP1     9   180.000000    11.129440     2
   CG2D1   CG2D1O    NG301   CG2D1O     9   180.000000     0.418400     2
   CG2D1   CG2D1O    NG301   CG3C51     9   180.000000     0.418400     2
   CG2D1   CG2D1O    NG311   CG2D1O     9   180.000000     0.418400     2
   CG2D1   CG2D1O    NG311    CG321     9     0.000000     0.000000     2
   CG2D1   CG2D1O    NG311    CG321     9     0.000000     0.794960     3
   CG2D1   CG2D1O    NG311   HGPAM1     9   180.000000     0.418400     2
   CG2D1   CG2D1O    NG3P1    CG324     9     0.000000     9.162960     2
   CG2D1   CG2D1O    NG3P1     HGP2     9   180.000000     0.209200     1
   CG2D1   CG2D1O    NG3P1     HGP2     9     0.000000     0.000000     2
   CG2D1   CG2D1O    NG3P1     HGP2     9     0.000000     8.828240     3
   CG2D1   CG2D1O    NG3P1     HGP2     9     0.000000     4.435040     4
   CG2D1   CG2D1O    NG3P2    CG324     9   180.000000    18.451440     2
   CG2D1   CG2D1O    NG3P2     HGP2     9     0.000000     0.502080     1
   CG2D1   CG2D1O    NG3P2     HGP2     9     0.000000     5.188160     2
   CG2D1   CG2D1O    NG3P2     HGP2     9     0.000000     1.924640     3
   CG2D1   CG2D1O    NG3P2     HGP2     9   180.000000     0.962320     4
   CG2D1   CG2D1O    OG301    CG321     9   180.000000     3.347200     1
   CG2D1   CG2D1O    OG301    CG321     9   180.000000    12.552000     2
   CG2D1   CG2D1O    OG301    CG321     9   180.000000     4.602400     3
   CG2D1   CG2D1O   OG3R60   CG2D1O     9   180.000000    12.552000     2
   CG2D1   CG2D1O   OG3R60   CG2D2O     9   180.000000    12.552000     2
   CG2D1   CG2D1O   OG3R60    CG301     9     0.000000     8.368000     2
   CG2D1   CG2D1O   OG3R60    CG321     9   180.000000    14.811360     2
   CG2D1   CG2D2O    CG314    CG321     9   180.000000     1.589920     1
   CG2D1   CG2D2O    CG314    CG321     9     0.000000     0.251040     2
   CG2D1   CG2D2O    CG314    NG3P1     9     0.000000     8.409840     1
   CG2D1   CG2D2O    CG314    NG3P1     9     0.000000     4.267680     3
   CG2D1   CG2D2O    CG314     HGA1     9   180.000000     0.000000     3
   CG2D1   CG2D2O    CG321    CG321     9   180.000000     0.920480     1
   CG2D1   CG2D2O    CG321    CG321     9   180.000000     9.079280     2
   CG2D1   CG2D2O    CG321     HGA2     9   180.000000     0.000000     3
   CG2D1   CG2D2O    CG331     HGA3     9   180.000000     1.255200     3
   CG2D1   CG2D2O    NG2S0    CG2O1     9   180.000000     3.389040     1
   CG2D1   CG2D2O    NG2S0    CG2O1     9   180.000000    10.334480     2
   CG2D1   CG2D2O    NG2S0    CG331     9     0.000000     5.230000     1
   CG2D1   CG2D2O    NG2S0    CG331     9   180.000000    21.673120     2
   CG2D1   CG2D2O    NG2S1    CG2O1     9   180.000000    17.489120     1
   CG2D1   CG2D2O    NG2S1    CG2O1     9   180.000000     9.832400     2
   CG2D1   CG2D2O    NG2S1     HGP1     9   180.000000    11.129440     2
   CG2D1   CG2D2O    NG301   CG2D2O     9   180.000000     0.418400     2
   CG2D1   CG2D2O    NG301   CG3C51     9   180.000000     0.418400     2
   CG2D1   CG2D2O    NG311   CG2D2O     9   180.000000     0.418400     2
   CG2D1   CG2D2O    NG311    CG321     9     0.000000     0.000000     2
   CG2D1   CG2D2O    NG311    CG321     9     0.000000     0.794960     3
   CG2D1   CG2D2O    NG311   HGPAM1     9   180.000000     0.418400     2
   CG2D1   CG2D2O    NG3P1    CG324     9     0.000000     9.162960     2
   CG2D1   CG2D2O    NG3P1     HGP2     9   180.000000     0.209200     1
   CG2D1   CG2D2O    NG3P1     HGP2     9     0.000000     0.000000     2
   CG2D1   CG2D2O    NG3P1     HGP2     9     0.000000     8.828240     3
   CG2D1   CG2D2O    NG3P1     HGP2     9     0.000000     4.435040     4
   CG2D1   CG2D2O    NG3P2    CG324     9   180.000000    18.451440     2
   CG2D1   CG2D2O    NG3P2     HGP2     9     0.000000     0.502080     1
   CG2D1   CG2D2O    NG3P2     HGP2     9     0.000000     5.188160     2
   CG2D1   CG2D2O    NG3P2     HGP2     9     0.000000     1.924640     3
   CG2D1   CG2D2O    NG3P2     HGP2     9   180.000000     0.962320     4
   CG2D1   CG2D2O    OG301    CG321     9   180.000000     3.347200     1
   CG2D1   CG2D2O    OG301    CG321     9   180.000000    12.552000     2
   CG2D1   CG2D2O    OG301    CG321     9   180.000000     4.602400     3
   CG2D1   CG2D2O   OG3R60   CG2D1O     9   180.000000    12.552000     2
   CG2D1   CG2D2O   OG3R60   CG2D2O     9   180.000000    12.552000     2
   CG2D1   CG2D2O   OG3R60    CG301     9     0.000000     8.368000     2
   CG2D1   CG2D2O   OG3R60    CG321     9   180.000000    14.811360     2
   CG2D1    CG301    CG301    CG301     9     0.000000     0.836800     3
   CG2D1    CG301    CG301    OG311     9   180.000000     0.251040     3
   CG2D1    CG301    CG311    CG311     9     0.000000     0.836800     3
   CG2D1    CG301    CG311    CG321     9     0.000000     0.836800     3
   CG2D1    CG301    CG311     HGA1     9     0.000000     0.815880     3
   CG2D1    CG301    CG321    CG2O1     9     0.000000    14.392960     2
   CG2D1    CG301    CG321    CG2O1     9     0.000000     5.606560     3
   CG2D1    CG301    CG321    CG2O5     9     0.000000     3.012480     3
   CG2D1    CG301    CG321    CG301     9     0.000000     0.836800     3
   CG2D1    CG301    CG321    CG311     9     0.000000     0.836800     3
   CG2D1    CG301    CG321    CG321     9     0.000000     0.836800     3
   CG2D1    CG301    CG321     HGA2     9     0.000000     0.815880     3
   CG2D1    CG301    CG331     HGA3     9     0.000000     0.669440     3
   CG2D1    CG301    NG301    CG311     9     0.000000     0.836800     1
   CG2D1    CG301    NG301    CG311     9     0.000000     5.020800     2
   CG2D1    CG301    NG301    CG311     9     0.000000     0.292880     3
   CG2D1    CG301    NG301    CG311     9   180.000000     0.000000     4
   CG2D1    CG301    NG301    CG331     9     0.000000     0.878640     1
   CG2D1    CG301    NG301    CG331     9   180.000000     0.209200     2
   CG2D1    CG301    NG301    CG331     9     0.000000     5.062640     3
   CG2D1    CG301    NG301    CG331     9   180.000000     0.167360     6
   CG2D1    CG301    OG301    CG321     9   180.000000     2.133840     2
   CG2D1    CG301    OG301    CG321     9   180.000000     4.100320     3
   CG2D1    CG301    OG311     HGP1     9     0.000000     5.522880     1
   CG2D1    CG301    OG311     HGP1     9   180.000000     1.213360     2
   CG2D1    CG301    OG311     HGP1     9     0.000000     1.004160     3
   CG2D1    CG301   OG3C61    CG311     9   180.000000     1.046000     2
   CG2D1    CG301   OG3C61    CG311     9     0.000000     6.945440     3
   CG2D1    CG311    CG311    CG2D1     9   180.000000     3.765600     1
   CG2D1    CG311    CG311    CG2D1     9   180.000000     1.255200     3
   CG2D1    CG311    CG311    CG311     9     0.000000     0.836800     3
   CG2D1    CG311    CG311    CG321     9   180.000000     0.585760     1
   CG2D1    CG311    CG311    CG321     9     0.000000     0.711280     2
   CG2D1    CG311    CG311    CG321     9   180.000000     0.209200     3
   CG2D1    CG311    CG311    CG324     9     0.000000     0.083680     1
   CG2D1    CG311    CG311    CG324     9     0.000000    23.974320     2
   CG2D1    CG311    CG311    CG324     9   180.000000    14.476640     3
   CG2D1    CG311    CG311    CG331     9   180.000000     0.585760     1
   CG2D1    CG311    CG311    CG331     9     0.000000     0.711280     2
   CG2D1    CG311    CG311    CG331     9   180.000000     0.209200     3
   CG2D1    CG311    CG311    NG2S1     9     0.000000     0.000000     2
   CG2D1    CG311    CG311    NG2S1     9     0.000000    12.510160     3
   CG2D1    CG311    CG311   OG3C61     9   180.000000     5.732080     2
   CG2D1    CG311    CG311   OG3C61     9     0.000000     8.911920     3
   CG2D1    CG311    CG311     HGA1     9     0.000000     0.836800     3
   CG2D1    CG311    CG321    CG2D1     9   180.000000     3.765600     1
   CG2D1    CG311    CG321    CG2D1     9   180.000000     1.255200     3
   CG2D1    CG311    CG321    CG311     9   180.000000     0.585760     1
   CG2D1    CG311    CG321    CG311     9     0.000000     0.711280     2
   CG2D1    CG311    CG321    CG311     9   180.000000     0.209200     3
   CG2D1    CG311    CG321    CG321     9   180.000000     0.585760     1
   CG2D1    CG311    CG321    CG321     9     0.000000     0.711280     2
   CG2D1    CG311    CG321    CG321     9   180.000000     0.209200     3
   CG2D1    CG311    CG321    CG324     9   180.000000     0.000000     1
   CG2D1    CG311    CG321    CG324     9     0.000000     3.891120     2
   CG2D1    CG311    CG321    CG324     9   180.000000     0.920480     3
   CG2D1    CG311    CG321    CG331     9   180.000000     0.585760     1
   CG2D1    CG311    CG321    CG331     9     0.000000     0.711280     2
   CG2D1    CG311    CG321    CG331     9   180.000000     0.209200     3
   CG2D1    CG311    CG321    NG2S0     9     0.000000     3.723760     3
   CG2D1    CG311    CG321    NG2S0     9   180.000000     3.472720     4
   CG2D1    CG311    CG321    NG301     9     0.000000     5.732080     3
   CG2D1    CG311    CG321    NG301     9   180.000000     5.397360     4
   CG2D1    CG311    CG321    NG311     9   180.000000     1.297040     3
   CG2D1    CG311    CG321    NG311     9     0.000000     0.292880     4
   CG2D1    CG311    CG321    OG311     9     0.000000     0.836800     3
   CG2D1    CG311    CG321     HGA2     9     0.000000     0.815880     3
   CG2D1    CG311    CG324    NG3P1     9   180.000000     6.610720     3
   CG2D1    CG311    CG324    NG3P1     9   180.000000     3.640080     4
   CG2D1    CG311    CG324     HGA2     9     0.000000     0.836800     3
   CG2D1    CG311    CG331     HGA3     9     0.000000     0.669440     3
   CG2D1    CG311   CG3C50   CG3C52     9   180.000000     0.418400     4
   CG2D1    CG311   CG3C50   OG3C61     9   180.000000     0.125520     1
   CG2D1    CG311   CG3C50   OG3C61     9   180.000000     1.422560     2
   CG2D1    CG311    NG2S1    CG2O1     9   180.000000     6.108640     1
   CG2D1    CG311    NG2S1    CG2O1     9   180.000000     7.322000     2
   CG2D1    CG311    NG2S1    CG2O1     9     0.000000     5.104480     3
   CG2D1    CG311    NG2S1    CG2O1     9     0.000000     4.727920     4
   CG2D1    CG311    NG2S1    CG2O1     9     0.000000     1.297040     6
   CG2D1    CG311    NG2S1     HGP1     9     0.000000     1.882800     1
   CG2D1    CG311    NG2S1     HGP1     9   180.000000     6.192320     2
   CG2D1    CG311    OG311     HGP1     9     0.000000     5.439200     1
   CG2D1    CG311    OG311     HGP1     9     0.000000     2.928800     2
   CG2D1    CG311    OG311     HGP1     9     0.000000     0.585760     3
   CG2D1    CG311   OG3C61    CG311     9   180.000000     1.046000     1
   CG2D1    CG311   OG3C61    CG311     9     0.000000     0.251040     2
   CG2D1    CG311   OG3C61    CG311     9     0.000000     0.794960     3
   CG2D1    CG311   OG3C61    CG311     9     0.000000     3.598240     4
   CG2D1    CG314    NG3P3     HGP2     9     0.000000     0.924664     3
   CG2D1    CG321    CG321    CG2D1     9   180.000000     3.765600     1
   CG2D1    CG321    CG321    CG2D1     9   180.000000     1.255200     3
   CG2D1    CG321    CG321    CG2O1     9     0.000000     0.836800     3
   CG2D1    CG321    CG321    CG2O3     9     0.000000     0.836800     3
   CG2D1    CG321    CG321    CG301     9   180.000000     0.585760     1
   CG2D1    CG321    CG321    CG301     9     0.000000     0.711280     2
   CG2D1    CG321    CG321    CG301     9   180.000000     0.209200     3
   CG2D1    CG321    CG321    CG311     9   180.000000     0.585760     1
   CG2D1    CG321    CG321    CG311     9     0.000000     0.711280     2
   CG2D1    CG321    CG321    CG311     9   180.000000     0.209200     3
   CG2D1    CG321    CG321    CG321     9   180.000000     0.585760     1
   CG2D1    CG321    CG321    CG321     9     0.000000     0.711280     2
   CG2D1    CG321    CG321    CG321     9   180.000000     0.209200     3
   CG2D1    CG321    CG321    CG324     9     0.000000     3.430880     1
   CG2D1    CG321    CG321    CG324     9     0.000000     0.000000     2
   CG2D1    CG321    CG321    CG324     9     0.000000     2.092000     3
   CG2D1    CG321    CG321    CG331     9   180.000000     0.585760     1
   CG2D1    CG321    CG321    CG331     9     0.000000     0.711280     2
   CG2D1    CG321    CG321    CG331     9   180.000000     0.209200     3
   CG2D1    CG321    CG321   CG3C31     9   180.000000     0.585760     1
   CG2D1    CG321    CG321   CG3C31     9     0.000000     0.711280     2
   CG2D1    CG321    CG321   CG3C31     9   180.000000     0.209200     3
   CG2D1    CG321    CG321   CG3C41     9   180.000000     0.585760     1
   CG2D1    CG321    CG321   CG3C41     9     0.000000     0.711280     2
   CG2D1    CG321    CG321   CG3C41     9   180.000000     0.209200     3
   CG2D1    CG321    CG321   CG3C51     9     0.000000     0.836800     3
   CG2D1    CG321    CG321    NG301     9     0.000000     6.066800     3
   CG2D1    CG321    CG321    NG301     9   180.000000     5.397360     4
   CG2D1    CG321    CG321    NG311     9   180.000000     2.343040     3
   CG2D1    CG321    CG321    NG311     9     0.000000     1.046000     4
   CG2D1    CG321    CG321    SG311     9     0.000000     1.297040     1
   CG2D1    CG321    CG321    SG311     9     0.000000     1.464400     2
   CG2D1    CG321    CG321    SG311     9   180.000000     1.380720     3
   CG2D1    CG321    CG321    SG3O2     9   180.000000     2.677760     1
   CG2D1    CG321    CG321    SG3O2     9   180.000000     5.983120     2
   CG2D1    CG321    CG321    SG3O2     9     0.000000     1.464400     3
   CG2D1    CG321    CG321     HGA2     9     0.000000     0.815880     3
   CG2D1    CG321    CG324    NG3P2     9   180.000000     1.171520     3
   CG2D1    CG321    CG324    NG3P2     9   180.000000     3.096160     4
   CG2D1    CG321    CG324     HGA2     9     0.000000     0.836800     3
   CG2D1    CG321    CG331     HGA3     9     0.000000     0.669440     3
   CG2D1    CG321   CG3C31   CG3C31     9     0.000000     2.719600     3
   CG2D1    CG321   CG3C31   CG3C31     9   180.000000     2.217520     4
   CG2D1    CG321   CG3C31    NG3P2     9   180.000000     4.184000     1
   CG2D1    CG321   CG3C31    NG3P2     9     0.000000     5.815760     3
   CG2D1    CG321   CG3C31    NG3P2     9     0.000000     0.920480     6
   CG2D1    CG321   CG3C31     HGA1     9     0.000000     0.000000     1
   CG2D1    CG321   CG3C31     HGA1     9     0.000000     0.000000     3
   CG2D1    CG321   CG3C51   CG3C51     9     0.000000     6.401520     3
   CG2D1    CG321   CG3C51   CG3C51     9   180.000000     6.945440     4
   CG2D1    CG321   CG3C51   CG3C52     9     0.000000     0.460240     2
   CG2D1    CG321   CG3C51   CG3C52     9     0.000000     1.255200     4
   CG2D1    CG321   CG3C51     HGA1     9     0.000000     0.000000     3
   CG2D1    CG321   CG3RC1   CG3C52     9     0.000000    11.003920     2
   CG2D1    CG321   CG3RC1   CG3C52     9   180.000000     0.376560     4
   CG2D1    CG321   CG3RC1    NG3P1     9     0.000000     4.518720     2
   CG2D1    CG321   CG3RC1    NG3P1     9     0.000000     0.920480     3
   CG2D1    CG321   CG3RC1     HGA1     9     0.000000     0.000000     3
   CG2D1    CG321    NG2S0    CG2O6     9   180.000000     8.535360     1
   CG2D1    CG321    NG2S0    CG2O6     9     0.000000     1.171520     4
   CG2D1    CG321    NG2S0    CG321     9   180.000000     1.924640     1
   CG2D1    CG321    NG2S0    CG321     9   180.000000     3.305360     4
   CG2D1    CG321    NG301    CG321     9   180.000000     4.602400     1
   CG2D1    CG321    NG301    CG321     9   180.000000     2.510400     2
   CG2D1    CG321    NG301    CG321     9     0.000000     2.092000     3
   CG2D1    CG321    NG301    CG331     9   180.000000     4.602400     1
   CG2D1    CG321    NG301    CG331     9   180.000000     2.510400     2
   CG2D1    CG321    NG301    CG331     9     0.000000     2.092000     3
   CG2D1    CG321    NG301   OG3C61     9     0.000000     0.543920     1
   CG2D1    CG321    NG301   OG3C61     9     0.000000     8.409840     2
   CG2D1    CG321    NG301   OG3C61     9     0.000000     2.845120     3
   CG2D1    CG321    NG311   CG2R64     9   180.000000     8.368000     1
   CG2D1    CG321    NG311   CG2R64     9   180.000000     1.255200     3
   CG2D1    CG321    NG311    CG321     9   180.000000     4.602400     1
   CG2D1    CG321    NG311    CG321     9   180.000000     2.510400     2
   CG2D1    CG321    NG311    CG321     9     0.000000     2.092000     3
   CG2D1    CG321    NG311    CG331     9   180.000000     4.602400     1
   CG2D1    CG321    NG311    CG331     9   180.000000     2.510400     2
   CG2D1    CG321    NG311    CG331     9     0.000000     2.092000     3
   CG2D1    CG321    NG311   HGPAM1     9     0.000000     2.008320     3
   CG2D1    CG321    OG302    CG2O2     9   180.000000    11.547840     2
   CG2D1    CG321    OG302    CG2O2     9     0.000000     9.246640     3
   CG2D1    CG321    OG311     HGP1     9     0.000000     5.439200     1
   CG2D1    CG321    OG311     HGP1     9     0.000000     2.928800     2
   CG2D1    CG321    OG311     HGP1     9     0.000000     0.585760     3
   CG2D1    CG321   OG3C61    NG301     9   180.000000     0.836800     1
   CG2D1    CG321   OG3C61    NG301     9   180.000000     1.589920     2
   CG2D1    CG321   OG3C61    NG301     9   180.000000     4.309520     3
   CG2D1    CG321    SG311    CG2N2     9     0.000000    10.418160     1
   CG2D1    CG321    SG311    CG2N2     9     0.000000    13.849040     2
   CG2D1    CG321    SG311    CG2N2     9   180.000000     1.840960     3
   CG2D1    CG321    SG311   CG2R64     9   180.000000     5.439200     1
   CG2D1    CG321    SG311   CG2R64     9     0.000000     4.184000     2
   CG2D1    CG321    SG311   CG2R64     9     0.000000     0.836800     3
   CG2D1    CG321    SG311    CG321     9   180.000000     0.000000     1
   CG2D1    CG321    SG311    CG321     9   180.000000     0.418400     3
   CG2D1    CG321    SG311    CG321     9   180.000000     4.267680     4
   CG2D1    CG321    SG3O2    CG321     9     0.000000     0.000000     1
   CG2D1    CG321    SG3O2    CG321     9     0.000000     0.502080     2
   CG2D1    CG321    SG3O2    CG321     9   180.000000     5.690240     3
   CG2D1    CG321    SG3O2    CG321     9     0.000000     2.468560     4
   CG2D1    CG321    SG3O2    OG2P1     9   180.000000     0.334720     3
   CG2D1    CG321    OG303      PG1     9   180.000000     2.510400     1
   CG2D1    CG321    OG303      PG1     9     0.000000     2.719600     2
   CG2D1    CG321    OG303      PG1     9     0.000000     0.209200     3
   CG2D1    CG321      CT1      NH1     9     0.000000     0.400409     3
   CG2D1    CG321      CT1        C     9   180.000000     0.871109     1
   CG2D1    CG324    NG3P1    CG324     9     0.000000     0.000000     1
   CG2D1    CG324    NG3P1    CG324     9   180.000000     8.033280     3
   CG2D1    CG324    NG3P1    CG334     9   180.000000     8.660880     1
   CG2D1    CG324    NG3P1    CG334     9     0.000000     6.485200     3
   CG2D1    CG324    NG3P1     HGP2     9   180.000000     2.175680     3
   CG2D1    CG324    NG3P2    CG324     9   180.000000     2.928800     1
   CG2D1    CG324    NG3P2    CG324     9     0.000000     3.347200     3
   CG2D1    CG324    NG3P2    CG334     9   180.000000     2.928800     1
   CG2D1    CG324    NG3P2    CG334     9     0.000000     3.347200     3
   CG2D1    CG324    NG3P2     HGP2     9     0.000000     0.209200     3
   CG2D1   CG3C31   CG3C31    CG2O3     9     0.000000     0.000000     2
   CG2D1   CG3C31   CG3C31    CG2O3     9     0.000000     0.083680     6
   CG2D1   CG3C31   CG3C31    CG321     9     0.000000     0.000000     2
   CG2D1   CG3C31   CG3C31    CG321     9   180.000000     1.715440     6
   CG2D1   CG3C31   CG3C31   CG3C31     9     0.000000     0.125520     3
   CG2D1   CG3C31   CG3C31   CG3C31     9     0.000000     1.171520     6
   CG2D1   CG3C31   CG3C31     HGA1     9   180.000000     0.000000     5
   CG2D1   CG3C50    SG311   CG3C52     9   180.000000     1.589920     1
   CG2D1   CG3C50    SG311   CG3C52     9   180.000000     5.815760     3
   CG2D1   CG3C50    SG311   CG3C52     9     0.000000     2.677760     4
   CG2D1   CG3C51   CG3C51    CG321     9     0.000000     0.000000     3
   CG2D1   CG3C51   CG3C51    CG321     9     0.000000     0.167360     4
   CG2D1   CG3C51   CG3C51    CG321     9     0.000000     0.878640     6
   CG2D1   CG3C51   CG3C51   CG3C52     9     0.000000     0.000000     3
   CG2D1   CG3C51   CG3C51   CG3C52     9     0.000000     0.627600     4
   CG2D1   CG3C51   CG3C51     HGA1     9     0.000000     0.000000     3
   CG2D1   CG3C51   OG3C51   CG2R53     9   180.000000     0.502080     1
   CG2D1   CG3C51   OG3C51   CG2R53     9   180.000000     1.715440     3
   CG2D1   CG3C51   OG3C51   CG2R53     9   180.000000     0.920480     6
   CG2D1   CG3C52   CG3C52   CG3C51     9     0.000000     2.133840     2
   CG2D1   CG3C52   CG3C52   CG3C51     9     0.000000     2.970640     3
   CG2D1   CG3C52   CG3C52     HGA2     9     0.000000     0.000000     3
   CG2D1   CG3RC1   CG3RC1    CG2O1     9   180.000000     9.832400     2
   CG2D1   CG3RC1   CG3RC1    CG2O1     9   180.000000     0.585760     3
   CG2D1   CG3RC1   CG3RC1   CG3C31     9     0.000000     1.631760     2
   CG2D1   CG3RC1   CG3RC1   CG3C31     9     0.000000     1.966480     3
   CG2D1   CG3RC1   CG3RC1     HGA1     9     0.000000     0.000000     3
   CG2D1   CG3RC1    NG3P1    CG334     9     0.000000     0.000000     2
   CG2D1   CG3RC1    NG3P1    CG334     9   180.000000     3.179840     3
   CG2D1   CG3RC1    NG3P1   CG3RC1     9   180.000000     0.920480     2
   CG2D1   CG3RC1    NG3P1   CG3RC1     9     0.000000     0.753120     3
   CG2D1   CG3RC1    NG3P1     HGP2     9   180.000000     0.209200     2
   CG2D1   CG3RC1    NG3P1     HGP2     9   180.000000     1.589920     3
   CG2D1    NG2D1    NG2S0    CG2O1     9   180.000000     0.209200     1
   CG2D1    NG2D1    NG2S0    CG2O1     9     0.000000     0.041840     2
   CG2D1    NG2D1    NG2S0    CG331     9   180.000000     0.251040     1
   CG2D1    NG2D1    NG2S0    CG331     9   180.000000     6.819920     2
   CG2D1    NG2D1    NG2S1    CG2O1     9   180.000000    14.225600     1
   CG2D1    NG2D1    NG2S1    CG2O1     9   180.000000     5.439200     2
   CG2D1    NG2D1    NG2S1     HGP1     9   180.000000    10.460000     2
   CG2D1    NG2D1    NG3N1    CG2N2     9   180.000000     2.928800     1
   CG2D1    NG2D1    NG3N1    CG2N2     9   180.000000     7.698560     2
   CG2D1    NG2D1    NG3N1    CG2N2     9   180.000000     2.008320     3
   CG2D1    NG2D1    NG3N1    CG2N2     9     0.000000     0.711280     4
   CG2D1    NG2D1    NG3N1    CG2N2     9   180.000000     0.460240     6
   CG2D1    NG2D1    NG3N1     HGP1     9   180.000000     6.945440     2
   CG2D1    NG2D1    NG3N1     HGP1     9     0.000000     2.677760     3
   CG2D1    NG2D1   OG3R60    CG311     9   180.000000    18.576960     1
   CG2D1    NG2D1   OG3R60    CG311     9   180.000000    18.493280     2
   CG2D1    NG2D1   OG3R60    CG311     9   180.000000     1.087840     4
   CG2D1      CT1      NH1        C     9     0.000000     7.531200     1
   CG2D1      CT1      NH1        H     9     0.000000     0.000000     1
   CG2D1      CT1        C        N     9     0.000000     0.000000     1
    FGA1    CG2D1    CG311    CG321     9     0.000000     0.794960     3
    FGA1    CG2D1    CG311    CG321     9   180.000000     6.234160     6
    FGA1    CG2D1    CG311    OG311     9     0.000000     0.794960     1
    FGA1    CG2D1    CG311    OG311     9   180.000000     5.732080     2
    FGA1    CG2D1    CG311    OG311     9   180.000000     3.891120     3
    FGA1    CG2D1    CG311    OG311     9   180.000000     0.836800     6
    FGA1    CG2D1    CG311   OG3C61     9   180.000000     0.083680     1
    FGA1    CG2D1    CG311   OG3C61     9   180.000000     2.343040     2
    FGA1    CG2D1    CG311   OG3C61     9     0.000000     0.920480     3
    FGA1    CG2D1    CG311   OG3C61     9   180.000000     6.778080     6
    FGA1    CG2D1    CG311     HGA1     9     0.000000     0.000000     3
    FGA1    CG322    CG324    NG3P1     9     0.000000     3.263520     3
    FGA1    CG322    CG324    NG3P2     9     0.000000     5.815760     3
    FGA1    CG322    CG324     HGA2     9     0.000000     0.753120     3
    FGA1    CG322    CG331     HGA3     9     0.000000     0.774040     3
    FGA1    CG322   CG3C51   CG3C41     9     0.000000     1.004160     3
    FGA1    CG322   CG3C51   CG3C52     9   180.000000     0.000000     3
    FGA1    CG322   CG3C51     HGA1     9     0.000000     0.000000     3
    FGA1    CG322   NG2R51   CG2R53     9   180.000000     3.849280     1
    FGA1    CG322   NG2R51   CG2R53     9     0.000000     8.075120     2
    FGA1    CG322   NG2R51   CG2R53     9     0.000000     0.502080     3
    FGA1    CG322   NG2R51   CG2R53     9     0.000000     5.439200     4
    FGA1    CG322   NG2R51   CG2RC0     9   180.000000     3.556400     1
    FGA1    CG322   NG2R51   CG2RC0     9   180.000000     0.334720     2
    FGA1    CG322   NG2R51   CG2RC0     9   180.000000     1.338880     3
    FGA1    CG322   NG2R51   CG2RC0     9     0.000000     1.255200     4
    FGA1    CG322      CT1        C     9   180.000000    10.104360     1
    FGA1    CG322      CT1        C     9     0.000000     2.459774     2
    FGA1    CG322      CT1        C     9     0.000000     0.374468     3
    FGA1    CG322      CT1      NH1     9   180.000000    12.269580     1
    FGA1    CG322      CT1      NH1     9   180.000000     0.380744     2
    FGA1    CG322      CT1      NH1     9   180.000000     4.448847     3
    FGA1    CG322     CTD1        C     9   180.000000    10.104360     1
    FGA1    CG322     CTD1        C     9     0.000000     2.459774     2
    FGA1    CG322     CTD1        C     9     0.000000     0.374468     3
    FGA1    CG322     CTD1      NH1     9   180.000000    12.269580     1
    FGA1    CG322     CTD1      NH1     9   180.000000     0.380744     2
    FGA1    CG322     CTD1      NH1     9   180.000000     4.448847     3
    FGA1   CG3C50   CG3C52   CG3C52     9     0.000000     0.836800     3
    FGA1   CG3C50   CG3C52   NG3C51     9   180.000000     0.000000     2
    FGA1   CG3C50   CG3C52   NG3C51     9     0.000000     6.276000     3
    FGA1   CG3C50   CG3C52     HGA2     9     0.000000     0.753120     3
    FGA1   CG3C51   CG3C51     FGA1     9     0.000000     0.000000     2
    FGA1   CG3C51   CG3C51     FGA1     9     0.000000     2.970640     3
    FGA1   CG3C51   CG3C51     HGA1     9     0.000000     0.774040     3
    FGA1   CG3C51   CG3C51     HGA6     9     0.000000     0.753120     3
    FGA1   CG3C51   CG3C52   CG3C51     9     0.000000     0.836800     3
    FGA1   CG3C51   CG3C52    NG2S0     9     0.000000     1.993676     3
    FGA1   CG3C51   CG3C52   NG3C51     9   180.000000     1.087840     3
    FGA1   CG3C51   CG3C52   NG3C51     9   180.000000     2.217520     6
    FGA1   CG3C51   CG3C52   OG3C51     9     0.000000     0.836800     3
    FGA1   CG3C51   CG3C52     HGA2     9     0.000000     0.774040     3
    FGA1   CG3C51   CG3C54    NG3P2     9   180.000000    10.501840     2
    FGA1   CG3C51   CG3C54    NG3P2     9     0.000000     3.054320     3
    FGA1   CG3C51   CG3C54     HGA2     9     0.000000     0.753120     3
   NG2P1    CG2D1    CG331     HGA3     9   180.000000     0.627600     3
   NG2P1   CG2D1O   CG2DC1    CG324     9     0.000000     0.041840     2
   NG2P1   CG2D1O   CG2DC1     HGA4     9   180.000000     8.744560     2
   NG2P1   CG2D2O   CG2DC2    CG324     9     0.000000     0.041840     2
   NG2P1   CG2D2O   CG2DC2     HGA4     9   180.000000     8.744560     2
   NG2P1   CG2DC1   CG2DC2   CG2DC3     9     0.000000     2.092000     1
   NG2P1   CG2DC1   CG2DC2   CG2DC3     9   180.000000     9.204800     2
   NG2P1   CG2DC1   CG2DC2   CG2DC3     9     0.000000     4.602400     3
   NG2P1   CG2DC1   CG2DC2   CG2DC3     9     0.000000     2.510400     4
   NG2P1   CG2DC1   CG2DC2     HGA4     9   180.000000     4.184000     2
   NG2P1    CG2N1    NG2D1    CG2O1     9     0.000000     0.711280     1
   NG2P1    CG2N1    NG2D1    CG2O1     9     0.000000     1.757280     2
   NG2P1    CG2N1    NG2D1    CG2O1     9     0.000000     1.799120     3
   NG2P1    CG2N1    NG2D1     HGP1     9   180.000000    23.012000     2
   NG2P1    CG2N1    NG2P1    CG2N1     9     0.000000     0.000000     1
   NG2P1    CG2N1    NG2P1    CG2N1     9   180.000000     5.941280     2
   NG2P1    CG2N1    NG2P1    CG2N1     9     0.000000     0.041840     3
   NG2P1    CG2N1    NG2P1    CG2N1     9   180.000000     0.000000     4
   NG2P1    CG2N1    NG2P1    CG2N2     9     0.000000     1.255200     2
   NG2P1    CG2N1    NG2P1   CG2R61     9   180.000000     9.790560     2
   NG2P1    CG2N1    NG2P1    CG314     9   180.000000     9.414000     2
   NG2P1    CG2N1    NG2P1    CG324     9   180.000000     9.414000     2
   NG2P1    CG2N1    NG2P1    CG334     9   180.000000     9.414000     2
   NG2P1    CG2N1    NG2P1    NG2D1     9   180.000000     9.748720     2
   NG2P1    CG2N1    NG2P1    NG2D1     9   180.000000     0.627600     6
   NG2P1    CG2N1    NG2P1    OG301     9   180.000000    16.346888     2
   NG2P1    CG2N1    NG2P1     HGP2     9   180.000000     9.414000     2
   NG2P1    CG2N1   NG2R61   CG2R63     9   180.000000     0.041840     1
   NG2P1    CG2N1   NG2R61   CG2R63     9   180.000000    11.673360     2
   NG2P1    CG2N1   NG2R61   CG2R63     9     0.000000     5.773920     3
   NG2P1    CG2N1   NG2R61   CG2R63     9     0.000000     1.213360     6
   NG2P1    CG2N1   NG2R61   CG2R64     9     0.000000     1.924640     1
   NG2P1    CG2N1   NG2R61   CG2R64     9   180.000000    23.765120     2
   NG2P1    CG2N1   NG2R61   CG2R64     9     0.000000     7.112800     3
   NG2P1    CG2N1    NG311    CG314     9   180.000000     0.753120     2
   NG2P1    CG2N1    NG311    CG314     9     0.000000     4.016640     4
   NG2P1    CG2N1    NG311   HGPAM1     9     0.000000     2.133840     2
   NG2P1    CG2N1    NG321   HGPAM2     9     0.000000     0.878640     1
   NG2P1    CG2N1    NG321   HGPAM2     9   180.000000    24.936640     2
   NG2P1    CG2N1    NG321   HGPAM2     9     0.000000     0.460240     3
   NG2P1    CG2N2    CG2N2    NG311     9   180.000000    15.355280     2
   NG2P1    CG2N2    CG2N2    NG311     9     0.000000     2.635920     3
   NG2P1    CG2N2    CG2N2    NG311     9     0.000000     0.125520     6
   NG2P1    CG2N2   CG2R51   CG2R51     9   180.000000     4.811600     2
   NG2P1    CG2N2   CG2R51   CG2R51     9     0.000000     1.297040     4
   NG2P1    CG2N2   CG2R51   CG2RC0     9   180.000000     4.811600     2
   NG2P1    CG2N2   CG2R51   CG2RC0     9     0.000000     1.297040     4
   NG2P1    CG2N2   CG2R51   NG2R51     9   180.000000    12.342800     2
   NG2P1    CG2N2   CG2R51   NG2R51     9     0.000000     2.594080     4
   NG2P1    CG2N2   CG2R51   NG2R51     9   180.000000     0.041840     6
   NG2P1    CG2N2   CG2R51   NG2RC0     9   180.000000    11.464160     2
   NG2P1    CG2N2   CG2R51   NG2RC0     9     0.000000     1.380720     4
   NG2P1    CG2N2   CG2R51   NG2RC0     9   180.000000     0.083680     6
   NG2P1    CG2N2   CG2R51   OG2R50     9   180.000000    13.137760     2
   NG2P1    CG2N2   CG2R51   OG2R50     9     0.000000     0.000000     4
   NG2P1    CG2N2   CG2R53   NG2R50     9   180.000000     6.903600     2
   NG2P1    CG2N2   CG2R53   NG2R50     9     0.000000     1.213360     4
   NG2P1    CG2N2   CG2R53   NG2R51     9   180.000000     8.786400     2
   NG2P1    CG2N2   CG2R53   NG2R51     9     0.000000     0.627600     4
   NG2P1    CG2N2   CG2R61   CG2R61     9   180.000000     3.430880     2
   NG2P1    CG2N2   CG2R61   CG2R61     9     0.000000     1.213360     4
   NG2P1    CG2N2   CG2R61   CG2R61     9     0.000000     0.376560     6
   NG2P1    CG2N2   CG2R61   CG2R64     9   180.000000     3.430880     2
   NG2P1    CG2N2   CG2R61   CG2R64     9     0.000000     1.213360     4
   NG2P1    CG2N2   CG2R61   CG2R64     9     0.000000     0.376560     6
   NG2P1    CG2N2   CG2R61   CG2R66     9   180.000000     3.430880     2
   NG2P1    CG2N2   CG2R61   CG2R66     9     0.000000     1.213360     4
   NG2P1    CG2N2   CG2R61   CG2R66     9     0.000000     0.376560     6
   NG2P1    CG2N2   CG2R61   CG2R67     9   180.000000     3.430880     2
   NG2P1    CG2N2   CG2R61   CG2R67     9     0.000000     1.213360     4
   NG2P1    CG2N2   CG2R61   CG2R67     9     0.000000     0.376560     6
   NG2P1    CG2N2   CG2R61   CG2RC0     9   180.000000     3.430880     2
   NG2P1    CG2N2   CG2R61   CG2RC0     9     0.000000     1.213360     4
   NG2P1    CG2N2   CG2R61   CG2RC0     9     0.000000     0.376560     6
   NG2P1    CG2N2   CG2R61   NG2R60     9   180.000000     9.832400     2
   NG2P1    CG2N2   CG2R61   NG2R60     9     0.000000     0.460240     6
   NG2P1    CG2N2   CG2R61   NG2R62     9   180.000000    11.213120     2
   NG2P1    CG2N2   CG2R62   CG2R62     9   180.000000     3.430880     2
   NG2P1    CG2N2   CG2R62   CG2R62     9     0.000000     1.213360     4
   NG2P1    CG2N2   CG2R62   CG2R62     9     0.000000     0.376560     6
   NG2P1    CG2N2   CG2R62   CG2R63     9   180.000000     3.430880     2
   NG2P1    CG2N2   CG2R62   CG2R63     9     0.000000     1.213360     4
   NG2P1    CG2N2   CG2R62   CG2R63     9     0.000000     0.376560     6
   NG2P1    CG2N2    CG301   CG2R51     9   180.000000     1.506240     1
   NG2P1    CG2N2    CG301   CG2R51     9   180.000000     1.840960     3
   NG2P1    CG2N2    CG301   CG2R51     9   180.000000     1.129680     4
   NG2P1    CG2N2    CG301    CG331     9     0.000000     1.087840     1
   NG2P1    CG2N2    CG301    CG331     9   180.000000     0.167360     6
   NG2P1    CG2N2    CG311   CG2R61     9     0.000000     0.460240     1
   NG2P1    CG2N2    CG311   CG2R61     9   180.000000     0.836800     3
   NG2P1    CG2N2    CG311   CG2R61     9   180.000000     3.598240     6
   NG2P1    CG2N2    CG311   OG3C61     9   180.000000     0.627600     1
   NG2P1    CG2N2    CG311   OG3C61     9     0.000000     1.422560     3
   NG2P1    CG2N2    CG311   OG3C61     9   180.000000     2.468560     6
   NG2P1    CG2N2    CG311     HGA1     9     0.000000     0.000000     3
   NG2P1    CG2N2    CG321   CG2R61     9     0.000000     0.000000     1
   NG2P1    CG2N2    CG321   CG2R61     9     0.000000     0.083680     2
   NG2P1    CG2N2    CG321   CG2R61     9     0.000000     1.087840     3
   NG2P1    CG2N2    CG321     HGA2     9     0.000000     1.046000     3
   NG2P1    CG2N2    CG331     HGA3     9     0.000000     1.046000     3
   NG2P1    CG2N2    NG2D1    CG324     9   180.000000    16.819680     2
   NG2P1    CG2N2    NG2P1    CG301     9   180.000000     6.066800     2
   NG2P1    CG2N2    NG2P1    CG324     9   180.000000     9.414000     2
   NG2P1    CG2N2    NG2P1    CG334     9   180.000000     9.414000     2
   NG2P1    CG2N2    NG2P1    OG311     9   180.000000    22.091520     2
   NG2P1    CG2N2    NG2P1    SG311     9   180.000000    15.104240     2
   NG2P1    CG2N2    NG2P1     HGP2     9   180.000000    14.644000     2
   NG2P1    CG2N2   NG2R52   CG2R51     9     0.000000     0.125520     2
   NG2P1    CG2N2   NG2R52   CG2RC0     9   180.000000     9.832400     2
   NG2P1    CG2N2    SG311    CG321     9   180.000000     5.773920     2
   NG2P1   CG2R53   NG2R50   CG2R52     9   180.000000    12.091760     2
   NG2P1   CG2R53   NG2R52    CG324     9   180.000000     2.468560     2
   NG2P1   CG2R53   NG2R52   CG3C54     9   180.000000    17.363600     2
   NG2P1   CG2R61   CG2R61    HGR61     9   180.000000    14.225600     2
   NG2P1   CG2R62   NG2R61   CG2R62     9   180.000000    14.518480     2
   NG2P1   CG2R62   NG2R61     HGP2     9   180.000000    12.928560     2
   NG2P1   CG2R63   NG2R61   CG2R62     9   180.000000     2.510400     2
   NG2P1   CG2R63   NG2R61    CG331     9   180.000000    46.024000     2
   NG2P1   CG2R63   NG2R61     HGP1     9   180.000000     0.000000     2
   NG2P1   CG2R63   NG2R61     CN7B     9   180.000000    46.024000     2
   NG2P1   CG2R64   CG2RC0   CG2RC0     9   180.000000     7.531200     2
   NG2P1   CG2R64   CG2RC0   NG2R50     9   180.000000     8.368000     2
   NG2P1   CG2R64    NG2D1     HGP1     9     0.000000     6.694400     1
   NG2P1   CG2R64    NG2D1     HGP1     9   180.000000    28.660400     2
   NG2P1   CG2R64    NG2P1   CG2R61     9   180.000000     1.673600     2
   NG2P1   CG2R64    NG2P1   CG2R63     9   180.000000     9.623200     2
   NG2P1   CG2R64    NG2P1   CG2R64     9   180.000000     6.276000     2
   NG2P1   CG2R64    NG2P1    CG324     9   180.000000     6.108640     2
   NG2P1   CG2R64    NG2P1    CG334     9   180.000000     2.510400     2
   NG2P1   CG2R64    NG2P1     HGP2     9   180.000000    10.041600     2
   NG2P1   CG2R64    NG2P1     CN7B     9   180.000000     6.359680     2
   NG2P1   CG2R64   NG2R60   CG2R61     9   180.000000    49.705920     2
   NG2P1   CG2R64   NG2R61   CG2R61     9   180.000000     8.911920     2
   NG2P1   CG2R64   NG2R61   CG2R64     9     0.000000     0.000000     2
   NG2P1   CG2R64   NG2R61    CG334     9   180.000000     6.945440     2
   NG2P1   CG2R64   NG2R61     HGP2     9   180.000000    16.150240     2
   NG2P1   CG2R64   NG2R62   CG2R64     9   180.000000    12.552000     2
   NG2P1   CG2R64   NG2R62   CG2RC0     9   180.000000     8.368000     2
   NG2P1   CG2R71    NG2P1   CG2R64     9   180.000000    55.312480     2
   NG2P1   CG2R71    NG2P1    CG334     9   180.000000    34.183280     2
   NG2P1   CG2R71    NG2P1     HGP2     9     0.000000     2.175680     2
   NG2P1    CG301    CG321   CG2R61     9     0.000000    12.300960     2
   NG2P1    CG301    CG321   CG2R61     9   180.000000     1.171520     3
   NG2P1    CG301    CG321     HGA2     9     0.000000     0.836800     3
   NG2P1    CG301    CG331     HGA3     9     0.000000     0.836800     3
   NG2P1    CG314    CG321    CG321     9     0.000000     0.815880     3
   NG2P1    CG314    CG321    CG324     9   180.000000     0.418400     3
   NG2P1    CG314    CG321    CG324     9     0.000000     2.050160     4
   NG2P1    CG314    CG321    CG331     9     0.000000     0.815880     3
   NG2P1    CG314    CG321     HGA2     9     0.000000     0.815880     3
   NG2P1    CG314    CG331     HGA3     9     0.000000     0.815880     3
   NG2P1    CG314    NG2P1    CG2N1     9     0.000000     7.740400     4
   NG2P1    CG314    NG2P1    CG2N1     9   180.000000     2.050160     6
   NG2P1    CG314    NG2P1     HGP2     9     0.000000     0.585760     4
   NG2P1    CG314    NG2P1     HGP2     9   180.000000     0.920480     6
   NG2P1    CG314    NG311    CG2N1     9     0.000000     0.711280     1
   NG2P1    CG314    NG311    CG2N1     9   180.000000    10.334480     3
   NG2P1    CG314    NG311   HGPAM1     9   180.000000    22.551760     2
   NG2P1    CG314    NG311   HGPAM1     9     0.000000    12.928560     3
   NG2P1    CG324    CG331     HGA3     9     0.000000     0.815880     3
   NG2P1    CG324    NG2D1    CG2N2     9     0.000000     3.347200     1
   NG2P1    CG324    NG2D1    CG2N2     9     0.000000     0.878640     2
   NG2P1    CG324    NG2D1    CG2N2     9   180.000000     2.510400     3
   NG2P1    CG324    NG2D1    CG2N2     9     0.000000     8.744560     4
   NG2P1    CG324    NG2D1    CG2N2     9   180.000000     0.794960     6
   NG2P1    CG324      CT1        C     9   180.000000     2.183211     3
   NG2P1    CG324      CT1      NH1     9     0.000000    16.772401     1
   NG2P1    CG324      CT1      NH1     9   180.000000     0.751446     3
   NG2P1    CG324     CTD1        C     9   180.000000     2.183211     3
   NG2P1    CG324     CTD1      NH1     9     0.000000    16.772401     1
   NG2P1    CG324     CTD1      NH1     9   180.000000     0.751446     3
   NG2P1     CN7B     ON6B      CN7     9     0.000000     0.000000     3
   NG2P1     CN7B     CN7B      CN7     9     0.000000     0.000000     3
   NG2P1     CN7B     CN7B      ON5     9     0.000000     0.000000     3
   NG2P1     CN7B     CN7B      HN7     9     0.000000     0.000000     3
   HGR52    CG2D1    CG331     HGA3     9     0.000000     0.627600     3
   HGR52    CG2D1    NG2P1    CG334     9   180.000000    35.564000     2
   HGR52    CG2D1    NG2P1     HGP2     9   180.000000    20.920000     2
   HGR52   CG2DC1   CG2DC2   CG2DC3     9   180.000000     4.184000     2
   HGR52   CG2DC1   CG2DC2     HGA4     9   180.000000     0.000000     2
   HGR52   CG2DC1    NG2P1    CG334     9   180.000000    35.564000     2
   HGR52   CG2DC1    NG2P1     HGP2     9   180.000000    20.920000     2
   HGR52   CG2DC2    NG2P1    CG334     9   180.000000    35.564000     2
   HGR52   CG2DC2    NG2P1     HGP2     9   180.000000    20.920000     2
   HGR52    CG2N2    NG2P1    CG324     9   180.000000     9.916080     2
   HGR52    CG2N2    NG2P1     HGP2     9   180.000000     4.267680     2
   HGR52    CG2N2   NG2R52   CG2R51     9   180.000000    16.484960     2
   HGR52    CG2N2   NG2R52   CG2RC0     9     0.000000     0.000000     2
   HGR52    CG2O1   NG2R51   CG2R51     9   180.000000    12.426480     2
   HGR52    CG2O1   NG2R51   CG2R51     9     0.000000     0.125520     4
   HGR52    CG2O1   NG2R51   CG2RC0     9   180.000000     2.259360     2
   HGR52    CG2O1   NG2R51   CG2RC0     9     0.000000     0.794960     4
   HGR52    CG2O1    NG2S0    CG321     9   180.000000    10.878400     2
   HGR52    CG2O1    NG2S0    CG331     9   180.000000    10.878400     2
   HGR52    CG2O1    NG2S0    OG311     9   180.000000     2.513329     2
   HGR52    CG2O1    NG2S1    CG311     9     0.000000     6.440850     1
   HGR52    CG2O1    NG2S1    CG311     9   180.000000    12.200544     2
   HGR52    CG2O1    NG2S1     HGP1     9   180.000000     5.857600     2
   HGR52    CG2O1    NG2S2     HGP1     9   180.000000     5.857600     2
   HGR52    CG2O2    OG311     HGP1     9   180.000000    14.434800     2
   HGR52    CG2O4    CG2O5    CG321     9   180.000000     8.158800     2
   HGR52    CG2O4    CG2O5    OG2D3     9   180.000000    13.556160     2
   HGR52    CG2O4   CG2R51   CG2R51     9   180.000000     4.853440     2
   HGR52    CG2O4   CG2R51   SG2R50     9   180.000000     5.648400     2
   HGR52    CG2O4   CG2R52   CG2R51     9   180.000000    16.484960     2
   HGR52    CG2O4   CG2R52   NG2R50     9     0.000000     1.589920     2
   HGR52    CG2O4   CG2R53   NG2R50     9     0.000000     0.000000     2
   HGR52    CG2O4   CG2R53   NG2RC0     9   180.000000    13.514320     2
   HGR52    CG2O4   CG2R61   CG2R61     9   180.000000     4.518720     2
   HGR52    CG2O4   CG2R61   CG2R64     9   180.000000     4.518720     2
   HGR52    CG2O4   CG2R61   CG2R66     9   180.000000     4.518720     2
   HGR52    CG2O4   CG2R61   CG2RC0     9   180.000000     4.518720     2
   HGR52    CG2O4   CG2R62   CG2R62     9   180.000000     4.518720     2
   HGR52    CG2O4   CG2R62   CG2R64     9   180.000000     6.276000     2
   HGR52    CG2O4    CG311    CG311     9   180.000000     0.000000     3
   HGR52    CG2O4    CG311    CG321     9   180.000000     0.000000     3
   HGR52    CG2O4    CG311    CG331     9   180.000000     0.000000     3
   HGR52    CG2O4    CG311    NG2S1     9   180.000000     0.000000     3
   HGR52    CG2O4    CG311     HGA1     9   180.000000     0.000000     3
   HGR52    CG2O4    CG321    CG331     9   180.000000     0.000000     3
   HGR52    CG2O4    CG321   NG2R51     9     0.000000     2.478602     3
   HGR52    CG2O4    CG321    CLGA1     9   180.000000     0.000000     3
   HGR52    CG2O4    CG321     HGA2     9   180.000000     0.000000     3
   HGR52    CG2O4    CG331     HGA3     9   180.000000     0.000000     3
   HGR52    CG2O4    SG3O3    CG321     9     0.000000     0.000000     1
   HGR52    CG2O4    SG3O3    CG321     9     0.000000     0.000000     2
   HGR52    CG2O4    SG3O3    CG321     9   180.000000     6.610720     3
   HGR52    CG2O4    SG3O3    CG321     9   180.000000     7.070960     4
   HGR52    CG2O4    SG3O3    CG321     9     0.000000     1.422560     6
   HGR52    CG2O4    SG3O3    CG331     9   180.000000     1.297040     1
   HGR52    CG2O4    SG3O3    CG331     9     0.000000     1.506240     2
   HGR52    CG2O4    SG3O3    OG2P1     9     0.000000     3.849280     1
   HGR52    CG2O4    SG3O3    OG2P1     9   180.000000     7.614880     2
   HGR52    CG2O4    SG3O3    OG2P1     9     0.000000     5.564720     3
   HGR52    CG2O4    SG3O3    OG2P1     9   180.000000     2.970640     4
   HGR52    CG2O4    SG3O3    OG2P1     9     0.000000     1.046000     6
   HGR52   CG2R51   CG2R51    HGR52     9   180.000000     4.184000     2
   HGR52   CG2R51   CG2R51      CT2     9   180.000000     8.368000     2
   HGR52   CG2R51   CG2R57   CG2R51     9   180.000000     6.276000     2
   HGR52   CG2R51   CG2R57   CG2R52     9   180.000000     6.276000     2
   HGR52   CG2R51   CG2R57   CG2R57     9   180.000000    12.552000     2
   HGR52   CG2R51   CG2R57   CG2RC0     9   180.000000     6.276000     2
   HGR52   CG2R51   CG2R57   CG3C51     9   180.000000     2.468560     2
   HGR52   CG2R51   CG2R57   CG3C53     9   180.000000     3.974800     2
   HGR52   CG2R51   CG2R57   NG2R52     9   180.000000     1.129680     2
   HGR52   CG2R51   CG2R57   NG2R57     9   180.000000    12.552000     2
   HGR52   CG2R51   CG2R57   OG2R50     9   180.000000    14.978720     2
   HGR52   CG2R51   CG2RC0   CG2R61     9   180.000000     1.046000     2
   HGR52   CG2R51   CG2RC0   CG2RC0     9   180.000000     1.046000     2
   HGR52   CG2R51   CG2RC0   NG2R52     9   180.000000     5.690240     2
   HGR52   CG2R51   CG2RC0   NG2R61     9   180.000000     2.928800     2
   HGR52   CG2R51   CG2RC0   NG2RC0     9   180.000000     3.347200     2
   HGR52   CG2R51   CG2RC7   CG2R53     9   180.000000     3.765600     2
   HGR52   CG2R51   CG2RC7   CG2R71     9   180.000000     9.204800     2
   HGR52   CG2R51   NG2R50   CG2R52     9   180.000000     8.368000     2
   HGR52   CG2R51   NG2R50   CG2R53     9   180.000000    12.552000     2
   HGR52   CG2R51   NG2R50   CG2R57     9   180.000000     8.368000     2
   HGR52   CG2R51   NG2R50   CG2RC0     9   180.000000     8.368000     2
   HGR52   CG2R51   NG2R50   NG2R50     9   180.000000    23.012000     2
   HGR52   CG2R51   NG2R50     HGP1     9   180.000000     4.184000     2
   HGR52   CG2R51   NG2R50      CT2     9   180.000000     4.184000     2
   HGR52   CG2R51   NG2R51    CG2O6     9   180.000000     0.000000     2
   HGR52   CG2R51   NG2R51   CG2R51     9   180.000000    10.878400     2
   HGR52   CG2R51   NG2R51   CG2R53     9   180.000000    12.552000     2
   HGR52   CG2R51   NG2R51   CG2R62     9   180.000000     0.000000     2
   HGR52   CG2R51   NG2R51   CG2R64     9   180.000000     0.000000     2
   HGR52   CG2R51   NG2R51   CG2RC0     9   180.000000    10.878400     2
   HGR52   CG2R51   NG2R51    CG311     9   180.000000     0.000000     2
   HGR52   CG2R51   NG2R51    CG321     9   180.000000     0.000000     2
   HGR52   CG2R51   NG2R51    CG331     9   180.000000     0.000000     2
   HGR52   CG2R51   NG2R51   CG3C51     9   180.000000     0.000000     2
   HGR52   CG2R51   NG2R51   CG3C52     9   180.000000    10.208960     2
   HGR52   CG2R51   NG2R51   CG3C52     9     0.000000     0.962320     3
   HGR52   CG2R51   NG2R51   NG2R50     9   180.000000    12.552000     2
   HGR52   CG2R51   NG2R51    NG3N1     9     0.000000     2.803280     2
   HGR52   CG2R51   NG2R51    OG301     9   180.000000     0.066107     2
   HGR52   CG2R51   NG2R51      PG2     9   180.000000     3.492385     2
   HGR52   CG2R51   NG2R51     HGP1     9   180.000000     4.184000     2
   HGR52   CG2R51   NG2R51      CT2     9   180.000000     0.000000     2
   HGR52   CG2R51   NG2R51     CN7B     9   180.000000     1.255200     2
   HGR52   CG2R51   NG2R52   CG2R53     9   180.000000    10.460000     2
   HGR52   CG2R51   NG2R52   CG2R61     9   180.000000     6.903600     2
   HGR52   CG2R51   NG2R52   CG2RC0     9   180.000000    10.460000     2
   HGR52   CG2R51   NG2R52    CG314     9   180.000000     5.690240     2
   HGR52   CG2R51   NG2R52    CG324     9   180.000000     5.690240     2
   HGR52   CG2R51   NG2R52    CG334     9   180.000000     5.678525     2
   HGR52   CG2R51   NG2R52   CG3C53     9   180.000000    37.656000     2
   HGR52   CG2R51   NG2R52   NG2R51     9     0.000000     1.673600     2
   HGR52   CG2R51   NG2R52     HGP2     9   180.000000    12.552000     2
   HGR52   CG2R51   NG2R53   CG2R53     9   180.000000    14.100080     2
   HGR52   CG2R51   NG2R53     HGP1     9     0.000000     0.125520     2
   HGR52   CG2R51   NG2R57   CG2R51     9   180.000000    10.878400     2
   HGR52   CG2R51   NG2R57   CG2R57     9   180.000000     6.276000     2
   HGR52   CG2R51   NG2R57   NG2R57     9   180.000000     4.602400     2
   HGR52   CG2R51   NG2RC0   CG2R61     9   180.000000     5.857600     2
   HGR52   CG2R51   NG2RC0   CG2R62     9   180.000000     5.857600     2
   HGR52   CG2R51   NG2RC0   CG2R63     9   180.000000     1.464400     2
   HGR52   CG2R51   NG2RC0   CG2R67     9   180.000000    13.514320     2
   HGR52   CG2R51   NG2RC0   CG2RC0     9   180.000000     5.857600     2
   HGR52   CG2R51   NG2RC0   NG2R62     9     0.000000     0.000000     2
   HGR52   CG2R51   NG3C51   CG2R61     9     0.000000     1.255200     2
   HGR52   CG2R51   NG3C51   CG3C52     9   180.000000    12.552000     2
   HGR52   CG2R51   NG3C51    SG3O3     9   180.000000    11.882560     2
   HGR52   CG2R51   NG3C51     HGP1     9     0.000000     0.000000     3
   HGR52   CG2R51    NG3P2   CG3C54     9   180.000000     0.000000     3
   HGR52   CG2R51    NG3P2     HGP2     9   180.000000     0.000000     3
   HGR52   CG2R51   OG2R50   CG2R51     9   180.000000    15.899200     2
   HGR52   CG2R51   OG2R50   CG2R53     9   180.000000    15.899200     2
   HGR52   CG2R51   OG2R50   CG2R57     9   180.000000    15.899200     2
   HGR52   CG2R51   OG2R50   CG2RC0     9   180.000000    12.552000     2
   HGR52   CG2R51   OG2R50   NG2R50     9   180.000000    23.012000     2
   HGR52   CG2R51   OG3C51   CG2R53     9   180.000000     8.786400     2
   HGR52   CG2R51   OG3C51   CG3C50     9   180.000000     8.786400     2
   HGR52   CG2R51   OG3C51   CG3C52     9   180.000000     8.786400     2
   HGR52   CG2R51   SG2R50   CG2R51     9   180.000000    16.736000     2
   HGR52   CG2R51   SG2R50   CG2R53     9   180.000000    23.012000     2
   HGR52   CG2R51   SG2R50   CG2R57     9   180.000000    16.736000     2
   HGR52   CG2R51   SG2R50   CG2RC0     9   180.000000    16.317600     2
   HGR52   CG2R51   SG2R50   NG2R50     9   180.000000    18.828000     2
   HGR52   CG2R51   SG2R50   NG2R51     9   180.000000    11.422320     2
   HGR52   CG2R51    SG3O2   CG3C52     9     0.000000     0.000000     1
   HGR52   CG2R51    SG3O2   CG3C52     9   180.000000     5.564720     2
   HGR52   CG2R51    SG3O2    OG2P1     9     0.000000     3.891120     2
   HGR52   CG2R51    SG3O2    OG2P1     9     0.000000     0.041840     6
   HGR52   CG2R52   CG2R52    HGR52     9   180.000000     0.711280     2
   HGR52   CG2R52   CG2RC0   CG2R61     9   180.000000    10.041600     2
   HGR52   CG2R52   CG2RC0   CG2R63     9   180.000000    10.041600     2
   HGR52   CG2R52   CG2RC0   CG2R64     9   180.000000    10.041600     2
   HGR52   CG2R52   CG2RC0   CG2RC0     9   180.000000    10.041600     2
   HGR52   CG2R52   CG3C52   CG2R51     9     0.000000     5.439200     3
   HGR52   CG2R52   CG3C52   CG2RC0     9     0.000000     8.368000     3
   HGR52   CG2R52   CG3C52   CG3C52     9   180.000000    16.736000     2
   HGR52   CG2R52   CG3C52     HGA2     9     0.000000     0.000000     3
   HGR52   CG2R52   NG2R50   CG2R51     9   180.000000    20.920000     2
   HGR52   CG2R52   NG2R50   CG2RC0     9   180.000000    16.736000     2
   HGR52   CG2R52   NG2R50   CG3C52     9   180.000000    31.798400     2
   HGR52   CG2R52   NG2R50   NG2R51     9   180.000000    15.899200     2
   HGR52   CG2R52   NG2R50   NG2RC0     9   180.000000    15.899200     2
   HGR52   CG2R52   NG2R50   NG3C51     9   180.000000    20.920000     2
   HGR52   CG2R52   NG2R50   OG2R50     9   180.000000    23.012000     2
   HGR52   CG2R52   NG2R50   SG2R50     9   180.000000    18.828000     2
   HGR52   CG2R52   NG2R52   CG3C54     9   180.000000    37.656000     2
   HGR52   CG2R52   NG2R52     HGP2     9   180.000000     0.000000     2
   HGR52   CG2R52    SG3O3   CG3C52     9   180.000000     3.681920     1
   HGR52   CG2R52    SG3O3   CG3C52     9   180.000000    10.208960     2
   HGR52   CG2R52    SG3O3   CG3RC1     9   180.000000     2.803280     1
   HGR52   CG2R52    SG3O3   CG3RC1     9     0.000000     0.041840     2
   HGR52   CG2R52    SG3O3   NG3C51     9   180.000000     1.129680     1
   HGR52   CG2R52    SG3O3   NG3C51     9   180.000000     1.213360     2
   HGR52   CG2R52    SG3O3    OG2P1     9   180.000000     2.384880     3
   HGR52   CG2R52    SG3O3    OG2P1     9   180.000000     1.004160     6
   HGR52   CG2R53   NG2R50   CG251O     9   180.000000     1.816274     2
   HGR52   CG2R53   NG2R50   CG252O     9   180.000000     1.816274     2
   HGR52   CG2R53   NG2R50   CG2R51     9   180.000000     8.368000     2
   HGR52   CG2R53   NG2R50   CG2R53     9   180.000000    23.012000     2
   HGR52   CG2R53   NG2R50   CG2R57     9   180.000000     8.368000     2
   HGR52   CG2R53   NG2R50   CG2RC0     9   180.000000    21.756800     2
   HGR52   CG2R53   NG2R50   CG3C52     9   180.000000    47.697600     2
   HGR52   CG2R53   NG2R50   NG2R50     9   180.000000    17.991200     2
   HGR52   CG2R53   NG2R50   NG2R51     9   180.000000    13.807200     2
   HGR52   CG2R53   NG2R50   NG2RC0     9   180.000000    13.807200     2
   HGR52   CG2R53   NG2R50   OG2R50     9   180.000000    15.899200     2
   HGR52   CG2R53   NG2R51   CG2R51     9   180.000000    12.552000     2
   HGR52   CG2R53   NG2R51   CG2R53     9   180.000000    31.190465     2
   HGR52   CG2R53   NG2R51   CG2R61     9   180.000000     3.514560     2
   HGR52   CG2R53   NG2R51   CG2R64     9     0.000000     1.213360     2
   HGR52   CG2R53   NG2R51   CG2RC0     9   180.000000    23.430400     2
   HGR52   CG2R53   NG2R51    CG311     9   180.000000     0.000000     2
   HGR52   CG2R53   NG2R51    CG321     9   180.000000     0.000000     2
   HGR52   CG2R53   NG2R51    CG331     9   180.000000     0.000000     2
   HGR52   CG2R53   NG2R51   CG3C41     9   180.000000     0.000000     2
   HGR52   CG2R53   NG2R51   CG3C51     9   180.000000     0.000000     2
   HGR52   CG2R53   NG2R51   CG3RC1     9   180.000000     6.276000     2
   HGR52   CG2R53   NG2R51   NG2R50     9   180.000000     7.112800     2
   HGR52   CG2R53   NG2R51      PG2     9   180.000000     4.547590     2
   HGR52   CG2R53   NG2R51    SG311     9   180.000000     2.761440     2
   HGR52   CG2R53   NG2R51     HGP1     9   180.000000     4.184000     2
   HGR52   CG2R53   NG2R51     CN7B     9   180.000000     1.255200     2
   HGR52   CG2R53   NG2R57   CG2R57     9     0.000000     0.125520     2
   HGR52   CG2R53   NG2R57   NG2R50     9   180.000000    20.334240     2
   HGR52   CG2R53   NG2RC0   CG2R61     9   180.000000     1.799120     2
   HGR52   CG2R53   NG2RC0   CG2RC0     9   180.000000    14.309280     2
   HGR52   CG2R53   NG2RC0   NG2R62     9   180.000000     0.753120     2
   HGR52   CG2R53   NG3C51   CG3C52     9   180.000000     0.000000     2
   HGR52   CG2R53   NG3C51     HGP1     9     0.000000     0.000000     3
   HGR52   CG2R53   OG2R50   CG2R51     9   180.000000    15.899200     2
   HGR52   CG2R53   OG2R50   CG2R57     9   180.000000    15.899200     2
   HGR52   CG2R53   OG2R50   NG2R50     9   180.000000    16.736000     2
   HGR52   CG2R53   SG2R50   CG2R51     9   180.000000    23.012000     2
   HGR52   CG2R53   SG2R50   CG2RC0     9   180.000000    12.552000     2
   CG2O1   CG2D1O   CG2D1O    CG2O1     9   180.000000     1.631760     1
   CG2O1   CG2D1O   CG2D1O    CG2O1     9   180.000000     7.196480     2
   CG2O1   CG2D1O   CG2D1O    NG311     9   180.000000    16.443120     2
   CG2O1   CG2D1O   CG2DC1    CG2O2     9   180.000000     3.297829     1
   CG2O1   CG2D1O   CG2DC1    CG2O2     9   180.000000    28.968761     2
   CG2O1   CG2D1O   CG2DC1    CG2O3     9   180.000000     3.297829     1
   CG2O1   CG2D1O   CG2DC1    CG2O3     9   180.000000    28.968761     2
   CG2O1   CG2D1O   CG2DC1    CG331     9   180.000000     3.297829     1
   CG2O1   CG2D1O   CG2DC1    CG331     9   180.000000    28.968761     2
   CG2O1   CG2D1O   CG2DC1     HGA4     9   180.000000    22.015790     2
   CG2O1   CG2D1O    NG2S1    CG2O1     9     0.000000     6.398591     1
   CG2O1   CG2D1O    NG2S1    CG2O1     9   180.000000    10.344103     2
   CG2O1   CG2D1O    NG2S1     HGP1     9   180.000000    10.462510     2
   CG2O1   CG2D1O    NG2S1        C     9   180.000000    17.502927     1
   CG2O1   CG2D1O    NG2S1        C     9   180.000000     9.839931     2
   CG2O1   CG2D1O    NG311   CG2D1O     9   180.000000     2.510400     2
   CG2O1   CG2D1O    NG311   HGPAM1     9     0.000000     0.000000     2
   CG2O1   CG2D2O   CG2D2O    CG2O1     9   180.000000     1.631760     1
   CG2O1   CG2D2O   CG2D2O    CG2O1     9   180.000000     7.196480     2
   CG2O1   CG2D2O   CG2D2O    NG311     9   180.000000    16.443120     2
   CG2O1   CG2D2O   CG2DC2    CG2O2     9   180.000000     3.297829     1
   CG2O1   CG2D2O   CG2DC2    CG2O2     9   180.000000    28.968761     2
   CG2O1   CG2D2O   CG2DC2    CG2O3     9   180.000000     3.297829     1
   CG2O1   CG2D2O   CG2DC2    CG2O3     9   180.000000    28.968761     2
   CG2O1   CG2D2O   CG2DC2    CG331     9   180.000000     3.297829     1
   CG2O1   CG2D2O   CG2DC2    CG331     9   180.000000    28.968761     2
   CG2O1   CG2D2O   CG2DC2     HGA4     9   180.000000    22.015790     2
   CG2O1   CG2D2O    NG2S1    CG2O1     9     0.000000     6.398591     1
   CG2O1   CG2D2O    NG2S1    CG2O1     9   180.000000    10.344103     2
   CG2O1   CG2D2O    NG2S1     HGP1     9   180.000000    10.462510     2
   CG2O1   CG2D2O    NG311   CG2D2O     9   180.000000     2.510400     2
   CG2O1   CG2D2O    NG311   HGPAM1     9     0.000000     0.000000     2
   CG2O1   CG2DC1   CG2DC1    CG311     9   180.000000     2.343040     1
   CG2O1   CG2DC1   CG2DC1    CG311     9   180.000000    29.288000     2
   CG2O1   CG2DC1   CG2DC1    CG331     9   180.000000     2.343040     1
   CG2O1   CG2DC1   CG2DC1    CG331     9   180.000000    29.288000     2
   CG2O1   CG2DC1   CG2DC1     HGA4     9   180.000000    21.741319     2
   CG2O1   CG2DC1   CG2DC2   CG2DC3     9   180.000000     3.221680     1
   CG2O1   CG2DC1   CG2DC2   CG2DC3     9     0.000000    14.225600     2
   CG2O1   CG2DC1   CG2DC2   CG2DC3     9     0.000000     4.142160     3
   CG2O1   CG2DC1   CG2DC2    CG321     9   180.000000     1.255200     1
   CG2O1   CG2DC1   CG2DC2    CG321     9   180.000000    11.422320     2
   CG2O1   CG2DC1   CG2DC2    CG321     9   180.000000     3.179840     4
   CG2O1   CG2DC1    CG2O3    OG2D2     9   180.000000     0.334720     2
   CG2O1   CG2DC1    CG2O3    OG2D2     9   180.000000     0.292880     4
   CG2O1   CG2DC1    CG321    CG2D1     9     0.000000     0.000000     3
   CG2O1   CG2DC1    CG321    CG321     9     0.000000     3.807440     1
   CG2O1   CG2DC1    CG321    CG321     9     0.000000     2.803280     2
   CG2O1   CG2DC1    CG321    CG321     9     0.000000     7.322000     3
   CG2O1   CG2DC1    CG321     HGA2     9     0.000000     0.000000     3
   CG2O1   CG2DC2   CG2DC2    CG311     9   180.000000     2.343040     1
   CG2O1   CG2DC2   CG2DC2    CG311     9   180.000000    29.288000     2
   CG2O1   CG2DC2   CG2DC2    CG331     9   180.000000     2.343040     1
   CG2O1   CG2DC2   CG2DC2    CG331     9   180.000000    29.288000     2
   CG2O1   CG2DC2   CG2DC2     HGA4     9   180.000000    21.741319     2
   CG2O1   CG2DC2    CG2O3    OG2D2     9   180.000000     0.334720     2
   CG2O1   CG2DC2    CG2O3    OG2D2     9   180.000000     0.292880     4
   CG2O1   CG2DC2    CG321    CG2D1     9     0.000000     0.000000     3
   CG2O1   CG2DC2    CG321    CG321     9     0.000000     3.807440     1
   CG2O1   CG2DC2    CG321    CG321     9     0.000000     2.803280     2
   CG2O1   CG2DC2    CG321    CG321     9     0.000000     7.322000     3
   CG2O1   CG2DC2    CG321     HGA2     9     0.000000     0.000000     3
   CG2O1    CG2O1    NG2S0    CG311     9     0.000000     8.619040     1
   CG2O1    CG2O1    NG2S0    CG311     9     0.000000     0.627600     2
   CG2O1    CG2O1    NG2S0    CG321     9   180.000000     1.213360     1
   CG2O1    CG2O1    NG2S0    CG321     9   180.000000     4.560560     2
   CG2O1    CG2O1    NG2S1    CG321     9     0.000000    12.384640     1
   CG2O1    CG2O1    NG2S1    CG321     9     0.000000     1.046000     2
   CG2O1    CG2O1    NG2S1     HGP1     9   180.000000     7.070960     2
   CG2O1   CG2R51   CG2R51   CG2R52     9   180.000000     0.000000     2
   CG2O1   CG2R51   CG2R51    CG321     9   180.000000     0.000000     2
   CG2O1   CG2R51   CG2R51   NG2R50     9   180.000000    13.221440     2
   CG2O1   CG2R51   CG2R51   NG2R51     9   180.000000    20.543440     2
   CG2O1   CG2R51   CG2R51   NG2RC0     9   180.000000    13.346960     2
   CG2O1   CG2R51   CG2R51    HGR51     9     0.000000     1.338880     2
   CG2O1   CG2R51   CG2R51    HGR52     9   180.000000     1.757280     2
   CG2O1   CG2R51   CG2RC0   CG2R64     9     0.000000     0.543920     2
   CG2O1   CG2R51   CG2RC0   CG2RC0     9     0.000000     0.083680     2
   CG2O1   CG2R51   NG2R50   CG2RC0     9   180.000000    15.187920     2
   CG2O1   CG2R51   NG2R51   CG2R61     9   180.000000    12.552000     2
   CG2O1   CG2R51   NG2R51    CG311     9   180.000000    12.552000     2
   CG2O1   CG2R51   NG2R51    CG331     9   180.000000    12.552000     2
   CG2O1   CG2R51   NG2R51   NG2R50     9   180.000000     0.000000     2
   CG2O1   CG2R51   SG2R50   CG2R53     9   180.000000    19.246400     2
   CG2O1   CG2R52   NG2R50   NG2R51     9   180.000000     0.125520     2
   CG2O1   CG2R61   CG2R61   CG2R61     9   180.000000    12.970400     2
   CG2O1   CG2R61   CG2R61   CG2RC0     9   180.000000    12.970400     2
   CG2O1   CG2R61   CG2R61    CG301     9     0.000000     0.000000     2
   CG2O1   CG2R61   CG2R61    CG311     9   180.000000     4.016640     2
   CG2O1   CG2R61   CG2R61    CG314     9     0.000000     8.158800     2
   CG2O1   CG2R61   CG2R61    CG321     9     0.000000     0.000000     2
   CG2O1   CG2R61   CG2R61    CG331     9   180.000000    11.380480     2
   CG2O1   CG2R61   CG2R61   NG2R51     9   180.000000     5.397360     2
   CG2O1   CG2R61   CG2R61   NG2R60     9   180.000000    20.920000     2
   CG2O1   CG2R61   CG2R61    NG2S1     9     0.000000     0.000000     2
   CG2O1   CG2R61   CG2R61    NG2S3     9   180.000000     5.397360     2
   CG2O1   CG2R61   CG2R61    NG301     9     0.000000     0.502080     2
   CG2O1   CG2R61   CG2R61    NG311     9     0.000000     0.920480     2
   CG2O1   CG2R61   CG2R61    OG301     9   180.000000     0.083680     2
   CG2O1   CG2R61   CG2R61    OG311     9   180.000000     1.631760     2
   CG2O1   CG2R61   CG2R61    OG312     9   180.000000     3.054320     2
   CG2O1   CG2R61   CG2R61   OG3R60     9     0.000000     0.083680     2
   CG2O1   CG2R61   CG2R61    HGR61     9   180.000000    10.041600     2
   CG2O1   CG2R61   CG2R61    HGR62     9   180.000000    10.041600     2
   CG2O1   CG2R61   CG2R64    NG2D1     9   180.000000     4.811600     2
   CG2O1   CG2R61   CG2R64   NG2R60     9   180.000000    12.426480     2
   CG2O1   CG2R61   CG2R64   NG2R61     9   180.000000     0.543920     2
   CG2O1   CG2R61   CG2R64    NG311     9   180.000000    10.962080     2
   CG2O1   CG2R61   CG2RC0   CG2RC0     9   180.000000    12.970400     2
   CG2O1   CG2R61   CG2RC0   NG2R51     9   180.000000    11.715200     2
   CG2O1   CG2R61   CG2RC0   SG2R50     9   180.000000     4.602400     2
   CG2O1   CG2R61   NG2R60   CG2R61     9   180.000000    35.312960     2
   CG2O1   CG2R61   NG2R60     HGP1     9   180.000000     8.660880     2
   CG2O1   CG2R61   NG2R62   NG2R62     9   180.000000    11.589680     2
   CG2O1   CG2R62   CG2R62   CG2R61     9   180.000000    12.552000     2
   CG2O1   CG2R62   CG2R62   CG2R62     9   180.000000    12.552000     2
   CG2O1   CG2R62   CG2R62    CG331     9   180.000000     5.062640     2
   CG2O1   CG2R62   CG2R62   NG2R61     9   180.000000    10.460000     2
   CG2O1   CG2R62   CG2R62    NG2S3     9   180.000000    18.158560     2
   CG2O1   CG2R62   CG2R62    HGR62     9   180.000000     4.184000     2
   CG2O1   CG2R62   CG2R62    HGR63     9   180.000000     4.184000     2
   CG2O1   CG2R62   CG2R63   CG2R62     9   180.000000     4.435040     2
   CG2O1   CG2R62   CG2R63    OG2D4     9   180.000000    14.895040     2
   CG2O1   CG2R62   CG2R63   OG3R60     9   180.000000     6.443360     2
   CG2O1   CG2R62   NG2R61   CG2R62     9     0.000000     0.334720     2
   CG2O1   CG2R62   NG2R61    NG2D1     9     0.000000     1.255200     2
   CG2O1   CG2R64   NG2R61   CG2R63     9     0.000000     0.000000     2
   CG2O1   CG2R64   NG2R61     HGP1     9   180.000000     3.765600     2
   CG2O1   CG2R64   NG2R62   CG2R62     9   180.000000    27.405200     2
   CG2O1    CG301    CG311    CG321     9     0.000000     0.836800     3
   CG2O1    CG301    CG311     HGA1     9     0.000000     0.836800     3
   CG2O1    CG301    CG321    CG311     9     0.000000     0.836800     3
   CG2O1    CG301    CG321    CG321     9     0.000000     0.836800     3
   CG2O1    CG301    CG321    CG324     9     0.000000     0.292880     3
   CG2O1    CG301    CG321    CG324     9     0.000000     1.213360     6
   CG2O1    CG301    CG321    NG301     9   180.000000     0.711280     1
   CG2O1    CG301    CG321    NG301     9   180.000000     3.012480     2
   CG2O1    CG301    CG321    NG301     9     0.000000     5.271840     3
   CG2O1    CG301    CG321     HGA2     9     0.000000     0.836800     3
   CG2O1    CG301    CG324    NG3P1     9     0.000000     8.660880     3
   CG2O1    CG301    CG324     HGA2     9     0.000000     0.836800     3
   CG2O1    CG301    CG331     HGA3     9     0.000000     0.836800     3
   CG2O1    CG301   CG3RC1   CG3C52     9   180.000000     6.485200     3
   CG2O1    CG301   CG3RC1   CG3C52     9     0.000000     1.715440     4
   CG2O1    CG301   CG3RC1     HGA1     9     0.000000     0.000000     3
   CG2O1    CG301    NG2S0    CG2O1     9   180.000000     0.836800     1
   CG2O1    CG301    NG2S0   CG2R61     9   180.000000    55.605360     1
   CG2O1    CG301    NG2S0   CG2R61     9     0.000000     0.041840     3
   CG2O1    CG301    NG3P1    CG324     9     0.000000     0.000000     1
   CG2O1    CG301    NG3P1    CG324     9     0.000000     4.351360     2
   CG2O1    CG301    NG3P1    CG324     9     0.000000     0.334720     3
   CG2O1    CG301    NG3P1    CG334     9     0.000000     0.920480     1
   CG2O1    CG301    NG3P1    CG334     9   180.000000     0.167360     2
   CG2O1    CG301    NG3P1    CG334     9   180.000000     1.799120     3
   CG2O1    CG301    NG3P1     HGP2     9   180.000000     1.757280     3
   CG2O1    CG301    OG311     HGP1     9     0.000000     1.464400     1
   CG2O1    CG301    OG311     HGP1     9     0.000000     1.548080     2
   CG2O1    CG301    OG311     HGP1     9   180.000000     0.041840     3
   CG2O1    CG301    SG3O2    CG321     9   180.000000     1.129680     1
   CG2O1    CG301    SG3O2    CG321     9     0.000000     2.719600     2
   CG2O1    CG301    SG3O2    CG321     9     0.000000     0.920480     3
   CG2O1    CG301    SG3O2    OG2P1     9     0.000000     1.087840     3
   CG2O1    CG311    CG311    CG321     9     0.000000     0.836800     3
   CG2O1    CG311    CG311    CG331     9     0.000000     0.836800     3
   CG2O1    CG311    CG311    OG311     9     0.000000     0.836800     3
   CG2O1    CG311    CG311     HGA1     9     0.000000     0.836800     3
   CG2O1    CG311    CG321   CG2DC1     9     0.000000     0.836800     3
   CG2O1    CG311    CG321   CG2DC2     9     0.000000     0.836800     3
   CG2O1    CG311    CG321    CG2O1     9     0.000000     0.836800     3
   CG2O1    CG311    CG321    CG2O3     9     0.000000     0.836800     3
   CG2O1    CG311    CG321   CG2R51     9     0.000000     0.836800     3
   CG2O1    CG311    CG321   CG2R61     9     0.000000     0.167360     3
   CG2O1    CG311    CG321    CG311     9     0.000000     0.836800     3
   CG2O1    CG311    CG321    CG321     9     0.000000     0.836800     3
   CG2O1    CG311    CG321   CG3RC1     9   180.000000     0.083680     2
   CG2O1    CG311    CG321   CG3RC1     9     0.000000     1.422560     3
   CG2O1    CG311    CG321   NG2R51     9   180.000000     1.506240     3
   CG2O1    CG311    CG321    NG2S0     9     0.000000     1.882800     3
   CG2O1    CG311    CG321    NG2S1     9     0.000000     1.882800     3
   CG2O1    CG311    CG321    OG311     9     0.000000     0.836800     3
   CG2O1    CG311    CG321    SG301     9     0.000000     0.836800     3
   CG2O1    CG311    CG321    SG311     9     0.000000     0.836800     3
   CG2O1    CG311    CG321     HGA2     9     0.000000     0.836800     3
   CG2O1    CG311    CG331     HGA3     9     0.000000     0.836800     3
   CG2O1    CG311    NG2S0    CG2O1     9   180.000000     0.836800     1
   CG2O1    CG311    NG2S0    CG311     9     0.000000     6.485200     1
   CG2O1    CG311    NG2S0    CG311     9   180.000000     4.895280     2
   CG2O1    CG311    NG2S0    CG331     9     0.000000     6.473066     1
   CG2O1    CG311    NG2S0    CG331     9   180.000000     4.879381     2
   CG2O1    CG311    NG2S1    CG2O1     9   180.000000     0.836800     1
   CG2O1    CG311    NG2S1    CG2O3     9   180.000000     0.836800     1
   CG2O1    CG311    NG2S1     HGP1     9     0.000000     0.000000     1
   CG2O1    CG311    NG301    CG321     9     0.000000     3.556400     1
   CG2O1    CG311    NG301    CG321     9     0.000000     5.020800     2
   CG2O1    CG311    NG301    CG321     9   180.000000     3.096160     3
   CG2O1    CG311    NG301    CG331     9   180.000000     0.209200     1
   CG2O1    CG311    NG301    CG331     9   180.000000     1.129680     2
   CG2O1    CG311    NG301    CG331     9   180.000000     1.757280     3
   CG2O1    CG311    NG311   CG2R62     9     0.000000    17.154400     1
   CG2O1    CG311    NG311   CG2R62     9     0.000000     1.004160     2
   CG2O1    CG311    NG311   CG2R62     9   180.000000    15.229760     3
   CG2O1    CG311    NG311    CG321     9     0.000000     8.368000     1
   CG2O1    CG311    NG311    CG321     9     0.000000     7.531200     2
   CG2O1    CG311    NG311    CG321     9     0.000000     2.092000     3
   CG2O1    CG311    NG311   HGPAM1     9   180.000000     2.510400     1
   CG2O1    CG311    NG311   HGPAM1     9     0.000000     1.255200     2
   CG2O1    CG311    NG311   HGPAM1     9     0.000000     2.092000     3
   CG2O1    CG311   NG3C51   CG2R53     9   180.000000     8.158800     1
   CG2O1    CG311   NG3C51   CG2R53     9     0.000000     2.384880     3
   CG2O1    CG311   NG3C51   CG3C52     9   180.000000     0.502080     1
   CG2O1    CG311   NG3C51   CG3C52     9     0.000000     2.803280     2
   CG2O1    CG311   NG3C51   CG3C52     9     0.000000     7.447520     3
   CG2O1    CG311    OG301   CG2R61     9   180.000000     3.807440     1
   CG2O1    CG311    OG301   CG2R61     9     0.000000     2.092000     2
   CG2O1    CG311    OG311     HGP1     9     0.000000     1.464400     1
   CG2O1    CG311    OG311     HGP1     9     0.000000     1.548080     2
   CG2O1    CG311    OG311     HGP1     9   180.000000     0.041840     3
   CG2O1    CG311   OG3C61    NG2S0     9     0.000000    35.815040     1
   CG2O1    CG311   OG3C61    NG2S0     9     0.000000    30.501360     2
   CG2O1    CG311   OG3C61    NG2S0     9   180.000000     2.343040     3
   CG2O1    CG311    SG311    CG321     9   180.000000     6.618251     1
   CG2O1    CG311    SG311    CG321     9     0.000000     2.845538     3
   CG2O1    CG311    SG311    CG331     9   180.000000     6.618251     1
   CG2O1    CG311    SG311    CG331     9     0.000000     2.845538     3
   CG2O1    CG311      CT1        C     9     0.000000     0.836800     3
   CG2O1    CG312    CG321    CG321     9     0.000000     1.380720     3
   CG2O1    CG312    CG321     HGA2     9     0.000000     0.000000     3
   CG2O1    CG314    CG321    CG2O1     9     0.000000     0.836800     3
   CG2O1    CG314    CG321    CG2O3     9     0.000000     0.836800     3
   CG2O1    CG314    CG321   CG2R51     9     0.000000     0.836800     3
   CG2O1    CG314    CG321   CG2R61     9     0.000000     0.167360     3
   CG2O1    CG314    CG321    CG311     9     0.000000     0.836800     3
   CG2O1    CG314    CG321    CG321     9     0.000000     0.836800     3
   CG2O1    CG314    CG321    OG311     9     0.000000     0.836800     3
   CG2O1    CG314    CG321    SG301     9     0.000000     0.836800     3
   CG2O1    CG314    CG321    SG311     9     0.000000     0.836800     3
   CG2O1    CG314    CG321     HGA2     9     0.000000     0.836800     3
   CG2O1    CG314    CG331     HGA3     9     0.000000     0.836800     3
   CG2O1    CG314    NG3P0    CG334     9   180.000000     8.632010     1
   CG2O1    CG314    NG3P0    CG334     9   180.000000     3.542174     2
   CG2O1    CG314    NG3P0    CG334     9     0.000000     1.538038     3
   CG2O1    CG314    NG3P1    CG324     9     0.000000     6.066800     1
   CG2O1    CG314    NG3P1    CG324     9     0.000000     6.903600     2
   CG2O1    CG314    NG3P1    CG324     9     0.000000     0.543920     4
   CG2O1    CG314    NG3P1    CG334     9     0.000000     3.849280     1
   CG2O1    CG314    NG3P1    CG334     9   180.000000     0.125520     2
   CG2O1    CG314    NG3P1    CG334     9     0.000000     3.179840     3
   CG2O1    CG314    NG3P1     HGP2     9   180.000000     8.326160     3
   CG2O1    CG314    NG3P3     HGP2     9     0.000000     0.418400     3
   CG2O1    CG321    CG321    CG2O1     9     0.000000     0.836800     3
   CG2O1    CG321    CG321   CG2R61     9     0.000000     0.167360     3
   CG2O1    CG321    CG321    CG311     9     0.000000     0.815880     3
   CG2O1    CG321    CG321    CG314     9     0.000000     0.815880     3
   CG2O1    CG321    CG321    CG321     9     0.000000     0.815880     3
   CG2O1    CG321    CG321    NG2S0     9     0.000000     1.589920     3
   CG2O1    CG321    CG321    NG2S1     9     0.000000     0.836800     3
   CG2O1    CG321    CG321    NG311     9     0.000000     0.167360     1
   CG2O1    CG321    CG321    NG311     9   180.000000     1.046000     2
   CG2O1    CG321    CG321    NG311     9   180.000000     5.439200     3
   CG2O1    CG321    CG321    NG311     9   180.000000     1.087840     6
   CG2O1    CG321    CG321   NG3C51     9   180.000000     9.999760     1
   CG2O1    CG321    CG321   NG3C51     9   180.000000    14.392960     2
   CG2O1    CG321    CG321   NG3C51     9     0.000000     7.280160     3
   CG2O1    CG321    CG321    SG311     9     0.000000     0.836800     3
   CG2O1    CG321    CG321     HGA2     9     0.000000     0.815880     3
   CG2O1    CG321    CG324    NG3P0     9     0.000000     0.836800     3
   CG2O1    CG321    CG324     HGP5     9   180.000000     3.932960     3
   CG2O1    CG321    CG324     HGP5     9   180.000000     1.004160     6
   CG2O1    CG321    CG331     HGA3     9     0.000000     0.669440     3
   CG2O1    CG321   NG2R51   CG2R51     9   180.000000     3.743425     1
   CG2O1    CG321   NG2R51   CG2R51     9   180.000000     1.776526     2
   CG2O1    CG321   NG2R51   CG2R51     9     0.000000     2.025893     3
   CG2O1    CG321   NG2R51   CG2R53     9   180.000000     2.316262     1
   CG2O1    CG321   NG2R51   CG2R53     9     0.000000     2.335927     2
   CG2O1    CG321   NG2R51   CG2R53     9     0.000000     0.856046     3
   CG2O1    CG321   NG2R53   CG2R53     9   180.000000     0.000000     1
   CG2O1    CG321    NG2S0    CG2O1     9   180.000000     0.836800     1
   CG2O1    CG321    NG2S0    CG301     9     0.000000    13.012240     1
   CG2O1    CG321    NG2S0    CG311     9     0.000000    13.012240     1
   CG2O1    CG321    NG2S0    CG321     9     0.000000    13.003454     1
   CG2O1    CG321    NG2S0    CG331     9     0.000000    13.012240     1
   CG2O1    CG321    NG2S0    NG3N1     9   180.000000     0.251040     1
   CG2O1    CG321    NG2S0    NG3N1     9     0.000000     0.041840     2
   CG2O1    CG321    NG2S1    CG2O1     9   180.000000     0.836800     1
   CG2O1    CG321    NG2S1     HGP1     9     0.000000     0.000000     1
   CG2O1    CG321    NG301   CG2R61     9   180.000000     0.000000     1
   CG2O1    CG321    NG301   CG2R61     9     0.000000     1.255200     2
   CG2O1    CG321    NG301   CG2R61     9     0.000000     3.305360     3
   CG2O1    CG321    NG301    CG331     9     0.000000     8.368000     1
   CG2O1    CG321    NG301    CG331     9     0.000000     7.531200     2
   CG2O1    CG321    NG301    CG331     9     0.000000     2.092000     3
   CG2O1    CG321    NG311    CG321     9     0.000000     8.368000     1
   CG2O1    CG321    NG311    CG321     9     0.000000     7.531200     2
   CG2O1    CG321    NG311    CG321     9     0.000000     2.092000     3
   CG2O1    CG321    NG311   HGPAM1     9   180.000000     2.510400     1
   CG2O1    CG321    NG311   HGPAM1     9     0.000000     1.255200     2
   CG2O1    CG321    NG311   HGPAM1     9     0.000000     2.092000     3
   CG2O1    CG321    OG301    CG321     9   180.000000     0.418400     1
   CG2O1    CG321    OG301    CG321     9     0.000000     3.347200     2
   CG2O1    CG321    OG301    CG321     9     0.000000     2.468560     3
   CG2O1    CG321   OG3C61    CG321     9   180.000000     8.660880     1
   CG2O1    CG321   OG3C61    CG321     9   180.000000    12.761200     2
   CG2O1    CG321   OG3C61    CG321     9     0.000000    10.752880     3
   CG2O1    CG321    SG311   CG2R61     9     0.000000     0.000000     1
   CG2O1    CG321    SG311   CG2R61     9   180.000000     0.000000     2
   CG2O1    CG321    SG311   CG2R61     9     0.000000     0.000000     3
   CG2O1    CG321    SG311    CG311     9     0.000000     5.020800     2
   CG2O1    CG321    SG311    CG311     9     0.000000     3.347200     3
   CG2O1    CG321    SG311    CG321     9     0.000000     5.033770     2
   CG2O1    CG321    SG311    CG321     9     0.000000     3.363936     3
   CG2O1    CG321    SG311    CG331     9   180.000000     2.343040     1
   CG2O1    CG321    SG311    CG331     9     0.000000     2.296179     2
   CG2O1    CG321    SG311    CG331     9     0.000000     3.121682     3
   CG2O1    CG321    SG3O2    CG301     9     0.000000     3.974800     1
   CG2O1    CG321    SG3O2    CG301     9     0.000000     7.614880     2
   CG2O1    CG321    SG3O2    CG301     9   180.000000     0.836800     3
   CG2O1    CG321    SG3O2    OG2P1     9   180.000000     0.920480     3
   CG2O1    CG321      CT1        C     9     0.000000     0.836800     3
   CG2O1    CG324    NG2P1    CG2N1     9     0.000000     1.004160     1
   CG2O1    CG324    NG2P1    CG2N1     9   180.000000     2.050160     2
   CG2O1    CG324    NG2P1    CG2N1     9   180.000000     0.334720     3
   CG2O1    CG324    NG2P1    CG334     9     0.000000     3.598240     1
   CG2O1    CG324    NG2P1    CG334     9     0.000000     0.460240     2
   CG2O1    CG324    NG2P1    CG334     9   180.000000     3.012480     3
   CG2O1    CG324    NG3P1    CG314     9   180.000000     0.460240     1
   CG2O1    CG324    NG3P1    CG314     9     0.000000     4.727920     2
   CG2O1    CG324    NG3P1    CG314     9     0.000000     4.393200     3
   CG2O1    CG324    NG3P1    CG334     9     0.000000     0.627600     1
   CG2O1    CG324    NG3P1    CG334     9     0.000000     2.552240     2
   CG2O1    CG324    NG3P1    CG334     9   180.000000     1.171520     3
   CG2O1    CG324    NG3P1     HGP2     9   180.000000     3.221680     3
   CG2O1    CG324    NG3P3     HGP2     9     0.000000     0.418400     3
   CG2O1   CG3C31   CG3C31   CG3C31     9     0.000000     6.987280     2
   CG2O1   CG3C31   CG3C31   CG3C31     9   180.000000     9.916080     6
   CG2O1   CG3C31   CG3C31     HGA2     9   180.000000     0.000000     5
   CG2O1   CG3C41   CG3C41   CG3C41     9     0.000000     0.460240     2
   CG2O1   CG3C41   CG3C41   CG3C41     9     0.000000     6.108640     3
   CG2O1   CG3C41   CG3C41   CG3C41     9   180.000000     2.092000     6
   CG2O1   CG3C41   CG3C41     HGA2     9   180.000000     0.711280     3
   CG2O1   CG3C41    NG2S1    CG2O1     9     0.000000     8.828240     3
   CG2O1   CG3C41    NG2S1     HGP1     9   180.000000    15.187920     1
   CG2O1   CG3C41    NG2S1     HGP1     9     0.000000     1.673600     2
   CG2O1   CG3C50   CG3C52   CG3C52     9     0.000000     0.585760     3
   CG2O1   CG3C50   CG3C52   OG3C51     9   180.000000     0.920480     2
   CG2O1   CG3C50   CG3C52   OG3C51     9     0.000000     8.702720     3
   CG2O1   CG3C50   CG3C52     HGA2     9     0.000000     0.585760     3
   CG2O1   CG3C50    NG2S0    CG2O1     9     0.000000     3.347200     3
   CG2O1   CG3C50    NG2S0   CG3C52     9     0.000000     0.418400     3
   CG2O1   CG3C50    NG2S1    CG2O1     9     0.000000     1.255200     3
   CG2O1   CG3C50    NG2S1    CG2O1     9   180.000000     7.447520     4
   CG2O1   CG3C50    NG2S1     HGP1     9   180.000000    12.635680     1
   CG2O1   CG3C50    NG2S1     HGP1     9     0.000000     0.083680     2
   CG2O1   CG3C50    OG311     HGP1     9     0.000000     0.122173     1
   CG2O1   CG3C50    OG311     HGP1     9     0.000000     5.716599     2
   CG2O1   CG3C50    OG311     HGP1     9     0.000000     2.151831     3
   CG2O1   CG3C51   CG3C51   CG3C52     9     0.000000     0.585760     3
   CG2O1   CG3C51   CG3C51    NG311     9   180.000000     5.104480     3
   CG2O1   CG3C51   CG3C51    NG311     9     0.000000     0.376560     6
   CG2O1   CG3C51   CG3C51     HGA1     9     0.000000     0.585760     3
   CG2O1   CG3C51   CG3C52   CG2RC0     9   180.000000     0.083680     2
   CG2O1   CG3C51   CG3C52   CG2RC0     9   180.000000     1.673600     3
   CG2O1   CG3C51   CG3C52   CG3C51     9     0.000000     0.585760     3
   CG2O1   CG3C51   CG3C52   CG3C52     9     0.000000     0.585760     3
   CG2O1   CG3C51   CG3C52    SG311     9     0.000000     0.587015     3
   CG2O1   CG3C51   CG3C52     HGA2     9     0.000000     0.585760     3
   CG2O1   CG3C51   CG3C53   CG3C52     9     0.000000     0.585760     3
   CG2O1   CG3C51   CG3C53    NG3P2     9     0.000000     0.125520     2
   CG2O1   CG3C51   CG3C53    NG3P2     9   180.000000     5.439200     3
   CG2O1   CG3C51   CG3C53     HGA1     9     0.000000     0.585760     3
   CG2O1   CG3C51    NG2S0    CG2O1     9     0.000000     3.347200     3
   CG2O1   CG3C51    NG2S0   CG3C52     9     0.000000     0.418400     3
   CG2O1   CG3C51   NG3C51   CG2RC0     9     0.000000     0.418400     2
   CG2O1   CG3C51   NG3C51   CG2RC0     9   180.000000     1.882800     3
   CG2O1   CG3C51   NG3C51    CG321     9   180.000000     0.274052     3
   CG2O1   CG3C51   NG3C51    CG331     9   180.000000     0.274052     3
   CG2O1   CG3C51   NG3C51   CG3C52     9   180.000000     1.565653     3
   CG2O1   CG3C51   NG3C51     HGP1     9     0.000000     2.008320     1
   CG2O1   CG3C51   NG3C51     HGP1     9     0.000000     1.087840     3
   CG2O1   CG3C51   OG3C51   CG3C50     9     0.000000    27.070480     2
   CG2O1   CG3C51   OG3C51   CG3C50     9     0.000000     5.857600     3
   CG2O1   CG3C51   OG3C51   CG3C52     9     0.000000     9.957920     2
   CG2O1   CG3C51   OG3C51   CG3C52     9   180.000000     0.753120     3
   CG2O1   CG3C53    NG3P2   CG3C54     9     0.000000     0.334720     3
   CG2O1   CG3C53    NG3P2     HGP2     9     0.000000     0.334720     3
   CG2O1   CG3RC1   CG3RC1    CG321     9     0.000000     0.209200     2
   CG2O1   CG3RC1   CG3RC1    CG321     9   180.000000     5.355520     3
   CG2O1   CG3RC1   CG3RC1   CG3C31     9     0.000000     4.811600     2
   CG2O1   CG3RC1   CG3RC1   CG3C31     9   180.000000     0.376560     3
   CG2O1   CG3RC1   CG3RC1   CG3C52     9     0.000000    16.024720     3
   CG2O1   CG3RC1   CG3RC1     HGA1     9     0.000000     0.000000     3
   CG2O1   CG3RC1    NG2S0    CG2O1     9     0.000000     1.464400     2
   CG2O1   CG3RC1    NG2S0    CG2O1     9     0.000000     1.840960     3
   CG2O1   CG3RC1    NG2S0   CG3C52     9     0.000000     4.184000     3
   CG2O1    NG2D1    NG2D1    CG2O1     9   180.000000    41.170560     2
   CG2O1    NG2D1    NG2D1    CG2O1     9   180.000000     4.142160     4
   CG2O1    NG2S0    NG2S1    CG2O1     9   180.000000     3.807440     1
   CG2O1    NG2S0    NG2S1    CG2O1     9   180.000000     9.748720     2
   CG2O1    NG2S0    NG2S1     HGP1     9     0.000000     1.631760     2
   CG2O1    NG2S0    NG3N1     HGP1     9   180.000000     2.343040     1
   CG2O1    NG2S0    NG3N1     HGP1     9   180.000000     2.175680     3
   CG2O1    NG2S0    NG3N1     HGP1     9   180.000000     0.753120     6
   CG2O1    NG2S0    OG301    CG321     9     0.000000     1.004160     1
   CG2O1    NG2S0    OG301    CG321     9   180.000000     1.129680     3
   CG2O1    NG2S0    OG311     HGP1     9   180.000000     7.770525     1
   CG2O1    NG2S0    OG311     HGP1     9   180.000000     1.534273     3
   CG2O1    NG2S1    NG2S1    CG2O6     9   180.000000     8.242480     1
   CG2O1    NG2S1    NG2S1    CG2O6     9   180.000000     9.204800     2
   CG2O1    NG2S1    NG2S1     HGP1     9   180.000000     6.652560     2
   CG2O1    NG2S1    OG311     HGP1     9     0.000000     8.773848     1
   CG2O1    NG2S1    OG311     HGP1     9     0.000000     3.445524     2
   CG2O1    NG2S1    SG3O3    NG311     9   180.000000     6.401520     3
   CG2O1    NG2S1    SG3O3    OG2P1     9     0.000000     9.581360     3
   CG2O1      NH1      CT3      HA3     9     0.000000     0.000000     3
   CG2O1      NH1      CT1      HB1     9     0.000000     0.000000     1
   CG2O1      NH1      CT1      CT3     9     0.000000     7.531200     1
   CG2O1      NH1      CT1      CT1     9     0.000000     7.531200     1
   CG2O1      NH1      CT1      CT2     9     0.000000     7.531200     1
   CG2O1      NH1      CT1     CT2A     9     0.000000     7.531200     1
   CG2O1      NH1      CT2        C     9   180.000000     0.836800     1
   CG2O1      NH1      CT2      HB2     9     0.000000     0.000000     1
   CG2O1        N      CP1        C     9     0.000000     3.347200     3
   CG2O1        N      CP1      CP2     9     0.000000     3.347200     3
   CG2O1        N      CP1      HB1     9     0.000000     3.347200     3
   CG2O1        N      CP3      CP2     9   180.000000     0.000000     3
   CG2O1        N      CP3      HA2     9   180.000000     0.000000     3
   CG2O5   CG2D1O   CG2D1O    CG321     9   180.000000     0.041840     1
   CG2O5   CG2D1O   CG2D1O    CG321     9   180.000000    16.484960     2
   CG2O5   CG2D1O   CG2D1O    NG311     9   180.000000    17.196240     2
   CG2O5   CG2D1O   CG2DC1   CG2D2O     9   180.000000     4.351360     1
   CG2O5   CG2D1O   CG2DC1   CG2D2O     9   180.000000     3.514560     2
   CG2O5   CG2D1O   CG2DC1    CG2O5     9   180.000000     2.345132     1
   CG2O5   CG2D1O   CG2DC1    CG2O5     9   180.000000     8.368000     2
   CG2O5   CG2D1O   CG2DC1     HGA4     9   180.000000    13.439845     2
   CG2O5   CG2D1O   CG2R61   CG2R61     9     0.000000     0.000000     2
   CG2O5   CG2D1O   CG2R61   OG3R60     9   180.000000    12.426480     2
   CG2O5   CG2D1O    OG301    CG331     9   180.000000     4.142160     1
   CG2O5   CG2D1O    OG301    CG331     9     0.000000     3.263520     2
   CG2O5   CG2D1O    OG301    CG331     9   180.000000     1.004160     3
   CG2O5   CG2D1O    OG311     HGP1     9   180.000000     8.606488     1
   CG2O5   CG2D1O    OG311     HGP1     9   180.000000     6.468464     2
   CG2O5   CG2D1O    OG311     HGP1     9   180.000000     1.732594     3
   CG2O5   CG2D1O    OG311     HGP1     9   180.000000     0.042258     6
   CG2O5   CG2D1O    SG311   CG2R61     9   180.000000     2.050160     2
   CG2O5   CG2D2O   CG2D2O    CG321     9   180.000000     0.041840     1
   CG2O5   CG2D2O   CG2D2O    CG321     9   180.000000    16.484960     2
   CG2O5   CG2D2O   CG2D2O    NG311     9   180.000000    17.196240     2
   CG2O5   CG2D2O   CG2DC2   CG2D1O     9   180.000000     4.351360     1
   CG2O5   CG2D2O   CG2DC2   CG2D1O     9   180.000000     3.514560     2
   CG2O5   CG2D2O   CG2DC2    CG2O5     9   180.000000     2.345132     1
   CG2O5   CG2D2O   CG2DC2    CG2O5     9   180.000000     8.368000     2
   CG2O5   CG2D2O   CG2DC2     HGA4     9   180.000000    13.439845     2
   CG2O5   CG2D2O   CG2R61   CG2R61     9     0.000000     0.000000     2
   CG2O5   CG2D2O   CG2R61   OG3R60     9   180.000000    12.426480     2
   CG2O5   CG2D2O    OG301    CG331     9   180.000000     4.142160     1
   CG2O5   CG2D2O    OG301    CG331     9     0.000000     3.263520     2
   CG2O5   CG2D2O    OG301    CG331     9   180.000000     1.004160     3
   CG2O5   CG2D2O    OG311     HGP1     9   180.000000     8.606488     1
   CG2O5   CG2D2O    OG311     HGP1     9   180.000000     6.468464     2
   CG2O5   CG2D2O    OG311     HGP1     9   180.000000     1.732594     3
   CG2O5   CG2D2O    OG311     HGP1     9   180.000000     0.042258     6
   CG2O5   CG2D2O    SG311   CG2R61     9   180.000000     2.050160     2
   CG2O5   CG2DC1   CG2DC1    CG2O5     9   180.000000     2.343040     1
   CG2O5   CG2DC1   CG2DC1    CG2O5     9   180.000000     0.850189     2
   CG2O5   CG2DC1   CG2DC1   CG2R51     9   180.000000     7.049203     2
   CG2O5   CG2DC1   CG2DC1   CG2R61     9   180.000000     7.029120     2
   CG2O5   CG2DC1   CG2DC1    CG301     9   180.000000     2.343040     1
   CG2O5   CG2DC1   CG2DC1    CG301     9   180.000000    29.288000     2
   CG2O5   CG2DC1   CG2DC1    CG321     9   180.000000     2.343040     1
   CG2O5   CG2DC1   CG2DC1    CG321     9   180.000000    29.288000     2
   CG2O5   CG2DC1   CG2DC1     HGA4     9   180.000000     4.537548     2
   CG2O5   CG2DC1   CG2DC2   CG2DC2     9   180.000000     3.204944     1
   CG2O5   CG2DC1   CG2DC2   CG2DC2     9     0.000000    14.230202     2
   CG2O5   CG2DC1   CG2DC2   CG2DC2     9     0.000000     4.152620     3
   CG2O5   CG2DC1   CG2DC2     HGA4     9   180.000000     4.248434     2
   CG2O5   CG2DC1   CG2DC3     HGA5     9   180.000000    13.388800     2
   CG2O5   CG2DC1   CG2R61   CG2R61     9     0.000000     0.000000     2
   CG2O5   CG2DC1   CG2R61   CG2R61     9     0.000000     0.543920     4
   CG2O5   CG2DC1   CG2R61   NG2R61     9   180.000000    11.296800     2
   CG2O5   CG2DC1   CG2R61   NG2R61     9   180.000000     0.962320     4
   CG2O5   CG2DC1    CG311    CG321     9     0.000000     3.807440     1
   CG2O5   CG2DC1    CG311    CG321     9     0.000000     2.803280     2
   CG2O5   CG2DC1    CG311    CG321     9     0.000000     7.322000     3
   CG2O5   CG2DC1    CG311     HGA1     9     0.000000     0.000000     3
   CG2O5   CG2DC1    CG321    CG311     9     0.000000     3.807440     1
   CG2O5   CG2DC1    CG321    CG311     9     0.000000     2.803280     2
   CG2O5   CG2DC1    CG321    CG311     9     0.000000     7.322000     3
   CG2O5   CG2DC1    CG321    CG331     9     0.000000     3.810787     1
   CG2O5   CG2DC1    CG321    CG331     9     0.000000     2.798678     2
   CG2O5   CG2DC1    CG321    CG331     9     0.000000     7.303172     3
   CG2O5   CG2DC1    CG321     HGA2     9     0.000000     0.000000     3
   CG2O5   CG2DC1    CG321      CT1     9     0.000000     3.810787     1
   CG2O5   CG2DC1    CG321      CT1     9     0.000000     2.798678     2
   CG2O5   CG2DC1    CG321      CT1     9     0.000000     7.303172     3
   CG2O5   CG2DC1    NG2D1    CG2N2     9   180.000000    10.501840     2
   CG2O5   CG2DC1    NG2D1     HGP1     9   180.000000    46.768334     2
   CG2O5   CG2DC2   CG2DC2    CG2O5     9   180.000000     2.343040     1
   CG2O5   CG2DC2   CG2DC2    CG2O5     9   180.000000     0.850189     2
   CG2O5   CG2DC2   CG2DC2   CG2R51     9   180.000000     7.049203     2
   CG2O5   CG2DC2   CG2DC2   CG2R61     9   180.000000     7.029120     2
   CG2O5   CG2DC2   CG2DC2    CG301     9   180.000000     2.343040     1
   CG2O5   CG2DC2   CG2DC2    CG301     9   180.000000    29.288000     2
   CG2O5   CG2DC2   CG2DC2    CG321     9   180.000000     2.343040     1
   CG2O5   CG2DC2   CG2DC2    CG321     9   180.000000    29.288000     2
   CG2O5   CG2DC2   CG2DC2     HGA4     9   180.000000     4.537548     2
   CG2O5   CG2DC2   CG2DC3     HGA5     9   180.000000    13.388800     2
   CG2O5   CG2DC2   CG2R61   CG2R61     9     0.000000     0.000000     2
   CG2O5   CG2DC2   CG2R61   CG2R61     9     0.000000     0.543920     4
   CG2O5   CG2DC2   CG2R61   NG2R61     9   180.000000    11.296800     2
   CG2O5   CG2DC2   CG2R61   NG2R61     9   180.000000     0.962320     4
   CG2O5   CG2DC2    CG311    CG321     9     0.000000     3.807440     1
   CG2O5   CG2DC2    CG311    CG321     9     0.000000     2.803280     2
   CG2O5   CG2DC2    CG311    CG321     9     0.000000     7.322000     3
   CG2O5   CG2DC2    CG311     HGA1     9     0.000000     0.000000     3
   CG2O5   CG2DC2    CG321    CG311     9     0.000000     3.807440     1
   CG2O5   CG2DC2    CG321    CG311     9     0.000000     2.803280     2
   CG2O5   CG2DC2    CG321    CG311     9     0.000000     7.322000     3
   CG2O5   CG2DC2    CG321    CG331     9     0.000000     3.810787     1
   CG2O5   CG2DC2    CG321    CG331     9     0.000000     2.798678     2
   CG2O5   CG2DC2    CG321    CG331     9     0.000000     7.303172     3
   CG2O5   CG2DC2    CG321     HGA2     9     0.000000     0.000000     3
   CG2O5   CG2DC2    NG2D1    CG2N2     9   180.000000    10.501840     2
   CG2O5   CG2DC2    NG2D1     HGP1     9   180.000000    46.768334     2
   CG2O5    CG2O4    SG3O3    CG321     9     0.000000     0.000000     2
   CG2O5    CG2O4    SG3O3    CG321     9     0.000000     0.460240     3
   CG2O5    CG2O4    SG3O3    CG331     9     0.000000     3.932960     2
   CG2O5    CG2O4    SG3O3    CG331     9     0.000000     1.046000     3
   CG2O5    CG2O4    SG3O3    OG2P1     9     0.000000     5.188160     2
   CG2O5    CG2O4    SG3O3    OG2P1     9     0.000000     0.334720     3
   CG2O5    CG2O5   CG2R51   CG2R51     9   180.000000     0.091630     2
   CG2O5    CG2O5   CG2R51   NG2R51     9   180.000000     7.150456     2
   CG2O5    CG2O5    CG311    CG321     9     0.000000     0.041840     1
   CG2O5    CG2O5    CG311    CG321     9     0.000000     0.083680     2
   CG2O5    CG2O5    CG311    CG321     9     0.000000     0.292880     3
   CG2O5    CG2O5    CG311    CG321     9   180.000000     1.380720     4
   CG2O5    CG2O5    CG311    CG331     9     0.000000     2.384880     1
   CG2O5    CG2O5    CG311    CG331     9     0.000000     2.803280     2
   CG2O5    CG2O5    CG311    CG331     9   180.000000     0.962320     3
   CG2O5    CG2O5    CG311    CG331     9     0.000000     0.376560     4
   CG2O5    CG2O5    CG311     HGA1     9   180.000000     0.000000     3
   CG2O5    CG2O5    CG321    CG301     9   180.000000     3.347200     1
   CG2O5    CG2O5    CG321    CG301     9     0.000000     8.326160     2
   CG2O5    CG2O5    CG321    CG301     9   180.000000     1.840960     3
   CG2O5    CG2O5    CG321     HGA2     9   180.000000     0.000000     3
   CG2O5    CG2O5   CG3RC1   CG3RC1     9   180.000000     2.133840     1
   CG2O5    CG2O5   CG3RC1   CG3RC1     9     0.000000     0.502080     2
   CG2O5    CG2O5   CG3RC1   CG3RC1     9     0.000000     0.251040     3
   CG2O5    CG2O5   CG3RC1     HGA1     9   180.000000     0.041840     3
   CG2O5   CG2R51   CG2R51   CG2R51     9   180.000000     0.000000     2
   CG2O5   CG2R51   CG2R51    CG321     9   180.000000     0.000000     2
   CG2O5   CG2R51   CG2R51   NG2R51     9   180.000000    18.033040     2
   CG2O5   CG2R51   CG2R51   OG3C51     9     0.000000     1.422560     2
   CG2O5   CG2R51   CG2R53    OG2D1     9   180.000000     2.384880     2
   CG2O5   CG2R51   CG2R53   OG3C51     9     0.000000     0.753120     1
   CG2O5   CG2R51   CG2R53   OG3C51     9     0.000000     0.000000     2
   CG2O5   CG2R51   CG2RC7   CG2R71     9   180.000000     0.125520     2
   CG2O5   CG2R51   CG2RC7   CG2RC7     9   180.000000    17.070720     2
   CG2O5   CG2R51   NG2R50   CG2R53     9   180.000000     0.711280     2
   CG2O5   CG2R51   NG2R51   CG2R51     9   180.000000     0.082425     2
   CG2O5   CG2R51   NG2R51     HGP1     9   180.000000     0.160666     2
   CG2O5   CG2R51   OG3C51   CG3C52     9     0.000000     1.171520     2
   CG2O5   CG2R52   NG2R50   NG2R51     9   180.000000    22.760960     2
   CG2O5   CG2R53   NG2R50   CG2R51     9   180.000000    12.677520     2
   CG2O5   CG2R53   SG2R50   CG2R51     9   180.000000     6.778080     2
   CG2O5   CG2R61   CG2R61   CG2R61     9   180.000000    12.970400     2
   CG2O5   CG2R61   CG2R61    CG311     9     0.000000     0.000000     2
   CG2O5   CG2R61   CG2R61    CG321     9   180.000000     7.698560     2
   CG2O5   CG2R61   CG2R61    CG331     9   180.000000    12.300960     2
   CG2O5   CG2R61   CG2R61   NG2R60     9   180.000000    20.920000     2
   CG2O5   CG2R61   CG2R61   NG2R61     9   180.000000     7.698560     2
   CG2O5   CG2R61   CG2R61    NG2S1     9   180.000000     5.397360     2
   CG2O5   CG2R61   CG2R61    NG2S3     9   180.000000     5.409075     2
   CG2O5   CG2R61   CG2R61    NG311     9   180.000000     3.305360     2
   CG2O5   CG2R61   CG2R61    OG311     9   180.000000     7.824080     2
   CG2O5   CG2R61   CG2R61   OG3R60     9     0.000000     0.418400     2
   CG2O5   CG2R61   CG2R61    SG3O2     9   180.000000     7.029120     2
   CG2O5   CG2R61   CG2R61    HGR61     9   180.000000    10.041600     2
   CG2O5   CG2R61   CG2R61    HGR62     9   180.000000    10.041600     2
   CG2O5   CG2R61   CG2R64    NG2D1     9   180.000000     4.811600     2
   CG2O5   CG2R61   CG2R64   NG2R61     9   180.000000     0.543920     2
   CG2O5   CG2R61   CG2R67   CG2R61     9   180.000000     8.953760     2
   CG2O5   CG2R61   CG2R67   CG2R67     9   180.000000    12.552000     2
   CG2O5   CG2R61   CG2RC0   CG2R52     9     0.000000     1.255200     2
   CG2O5   CG2R61   CG2RC0   CG2R67     9   180.000000     8.702720     2
   CG2O5   CG2R61   CG2RC0   CG2RC0     9   180.000000    12.970400     2
   CG2O5   CG2R61   CG2RC0   CG3RC1     9   180.000000     2.343040     2
   CG2O5   CG2R61   CG2RC0   NG2R51     9   180.000000    11.715200     2
   CG2O5   CG2R61   CG2RC0   SG2R50     9   180.000000     5.481040     2
   CG2O5   CG2R61   NG2R60   CG2R61     9   180.000000    35.312960     2
   CG2O5   CG2R62   CG2R62   CG2R62     9   180.000000    12.552000     2
   CG2O5   CG2R62   CG2R62    CG331     9   180.000000    12.468320     2
   CG2O5   CG2R62   CG2R62   NG2R61     9   180.000000    10.460000     2
   CG2O5   CG2R62   CG2R62    NG2S3     9   180.000000    35.480320     2
   CG2O5   CG2R62   CG2R62    HGR62     9   180.000000    11.715200     2
   CG2O5   CG2R62   CG2R63   NG2R61     9     0.000000     1.213360     2
   CG2O5   CG2R62   CG2R63    OG2D4     9   180.000000    15.522640     2
   CG2O5   CG2R62   CG2R63   OG3R60     9   180.000000     4.769760     2
   CG2O5    CG301    CG321    CG2D1     9     0.000000     2.008320     3
   CG2O5    CG301    CG321    CG2D1     9     0.000000    11.631520     4
   CG2O5    CG301    CG321    CG301     9   180.000000    16.024720     3
   CG2O5    CG301    CG321    CG301     9   180.000000     0.878640     6
   CG2O5    CG301    CG321    CG311     9     0.000000     0.920480     3
   CG2O5    CG301    CG321    CG321     9   180.000000     1.799120     3
   CG2O5    CG301    CG321    CG321     9     0.000000     2.468560     4
   CG2O5    CG301    CG321    CG331     9   180.000000     6.861760     3
   CG2O5    CG301    CG321    NG301     9   180.000000     1.673600     1
   CG2O5    CG301    CG321    NG301     9   180.000000    11.882560     2
   CG2O5    CG301    CG321    NG301     9     0.000000     0.418400     3
   CG2O5    CG301    CG321     HGA2     9     0.000000     0.836800     3
   CG2O5    CG301    CG331     HGA3     9     0.000000     0.836800     3
   CG2O5    CG301   CG3C51   CG3C52     9     0.000000     7.907760     3
   CG2O5    CG301   CG3C51   CG3C52     9   180.000000     1.338880     4
   CG2O5    CG301   CG3C51     HGA1     9     0.000000     0.000000     3
   CG2O5    CG301    OG311     HGP1     9     0.000000     1.464400     1
   CG2O5    CG301    OG311     HGP1     9     0.000000     1.548080     2
   CG2O5    CG301    OG311     HGP1     9   180.000000     0.041840     3
   CG2O5    CG311    CG311    CG321     9     0.000000     0.836800     3
   CG2O5    CG311    CG311    CG331     9     0.000000     0.836800     3
   CG2O5    CG311    CG311    NG311     9   180.000000     1.255200     1
   CG2O5    CG311    CG311    NG311     9   180.000000     7.112800     2
   CG2O5    CG311    CG311    NG311     9   180.000000     3.179840     3
   CG2O5    CG311    CG311    SG311     9     0.000000     0.836800     3
   CG2O5    CG311    CG311    SG3O2     9   180.000000     8.075120     3
   CG2O5    CG311    CG311     HGA1     9     0.000000     0.836800     3
   CG2O5    CG311    CG314    CG321     9     0.000000     0.836800     3
   CG2O5    CG311    CG314    NG3P2     9     0.000000     0.836800     3
   CG2O5    CG311    CG314     HGA1     9     0.000000     0.836800     3
   CG2O5    CG311    CG321    CG2D1     9     0.000000     0.836800     3
   CG2O5    CG311    CG321    CG2O5     9     0.000000     0.836800     3
   CG2O5    CG311    CG321    CG301     9     0.000000     0.836800     3
   CG2O5    CG311    CG321    CG311     9     0.000000     0.836800     3
   CG2O5    CG311    CG321    CG321     9     0.000000     0.836800     3
   CG2O5    CG311    CG321   CG3RC1     9     0.000000     0.376560     2
   CG2O5    CG311    CG321   CG3RC1     9   180.000000     2.217520     3
   CG2O5    CG311    CG321    NG2S1     9     0.000000     1.882800     3
   CG2O5    CG311    CG321    NG301     9   180.000000     0.041840     1
   CG2O5    CG311    CG321    NG301     9   180.000000     0.962320     2
   CG2O5    CG311    CG321    NG301     9   180.000000     2.970640     3
   CG2O5    CG311    CG321    NG301     9     0.000000     0.543920     6
   CG2O5    CG311    CG321   OG3C61     9     0.000000     0.000000     1
   CG2O5    CG311    CG321   OG3C61     9   180.000000     7.405680     2
   CG2O5    CG311    CG321   OG3C61     9     0.000000     1.213360     6
   CG2O5    CG311    CG321     HGA2     9     0.000000     0.836800     3
   CG2O5    CG311    CG324    NG3P1     9   180.000000     3.221680     3
   CG2O5    CG311    CG324    NG3P1     9     0.000000     1.004160     4
   CG2O5    CG311    CG324     HGA2     9     0.000000     0.836800     3
   CG2O5    CG311    CG331     HGA3     9     0.000000     0.836800     3
   CG2O5    CG311   NG2R53   CG2R53     9   180.000000     0.000000     1
   CG2O5    CG311    NG301    CG321     9     0.000000     0.251040     1
   CG2O5    CG311    NG301    CG321     9     0.000000     1.255200     2
   CG2O5    CG311    NG301    CG321     9     0.000000     1.255200     3
   CG2O5    CG311    NG301    CG331     9     0.000000     0.000000     1
   CG2O5    CG311    NG301    CG331     9   180.000000     1.338880     2
   CG2O5    CG311    NG301    CG331     9   180.000000     0.502080     3
   CG2O5    CG311    NG311   CG2R61     9     0.000000     0.669440     1
   CG2O5    CG311    NG311   CG2R61     9     0.000000     6.568880     3
   CG2O5    CG311    NG311   HGPAM1     9   180.000000     2.510400     1
   CG2O5    CG311    NG311   HGPAM1     9     0.000000     1.255200     2
   CG2O5    CG311    NG311   HGPAM1     9     0.000000     2.092000     3
   CG2O5    CG311    NG321   HGPAM2     9     0.000000     0.669440     3
   CG2O5    CG311    OG311     HGP1     9     0.000000     1.464400     1
   CG2O5    CG311    OG311     HGP1     9     0.000000     1.548080     2
   CG2O5    CG311    OG311     HGP1     9   180.000000     0.041840     3
   CG2O5    CG311   OG3C61    CG311     9     0.000000     4.560560     1
   CG2O5    CG311   OG3C61    CG311     9   180.000000     0.836800     2
   CG2O5    CG311   OG3C61    CG311     9   180.000000     0.878640     3
   CG2O5    CG311    SG3O1    OG2P1     9   180.000000     0.418400     3
   CG2O5    CG312    CG321    CG321     9   180.000000     0.585760     3
   CG2O5    CG312    CG321    CG321     9     0.000000     0.000000     6
   CG2O5    CG312    CG321     HGA2     9     0.000000     0.000000     3
   CG2O5    CG314    CG331     HGA3     9     0.000000     0.836800     3
   CG2O5    CG314    NG3P1    CG324     9     0.000000     1.589920     1
   CG2O5    CG314    NG3P1    CG324     9     0.000000     9.874240     2
   CG2O5    CG314    NG3P1    CG324     9     0.000000     3.263520     3
   CG2O5    CG314    NG3P1    CG334     9   180.000000     1.464400     1
   CG2O5    CG314    NG3P1    CG334     9     0.000000     0.376560     2
   CG2O5    CG314    NG3P1    CG334     9     0.000000     2.175680     3
   CG2O5    CG314    NG3P1     HGP2     9   180.000000     0.000000     3
   CG2O5    CG321    CG321   CG2R51     9     0.000000     0.836800     3
   CG2O5    CG321    CG321    CG301     9   180.000000     0.878640     1
   CG2O5    CG321    CG321    CG301     9     0.000000     1.631760     2
   CG2O5    CG321    CG321    CG301     9   180.000000     1.464400     3
   CG2O5    CG321    CG321    CG301     9     0.000000     0.460240     4
   CG2O5    CG321    CG321    CG301     9   180.000000     0.376560     6
   CG2O5    CG321    CG321    CG311     9   180.000000     0.878640     1
   CG2O5    CG321    CG321    CG311     9     0.000000     1.631760     2
   CG2O5    CG321    CG321    CG311     9   180.000000     1.464400     3
   CG2O5    CG321    CG321    CG311     9     0.000000     0.460240     4
   CG2O5    CG321    CG321    CG311     9   180.000000     0.376560     6
   CG2O5    CG321    CG321    CG314     9     0.000000     0.815880     3
   CG2O5    CG321    CG321    CG321     9   180.000000     0.878640     1
   CG2O5    CG321    CG321    CG321     9     0.000000     1.631760     2
   CG2O5    CG321    CG321    CG321     9   180.000000     1.464400     3
   CG2O5    CG321    CG321    CG321     9     0.000000     0.460240     4
   CG2O5    CG321    CG321    CG321     9   180.000000     0.376560     6
   CG2O5    CG321    CG321    CG324     9     0.000000     0.836800     3
   CG2O5    CG321    CG321    CG331     9   180.000000     0.878640     1
   CG2O5    CG321    CG321    CG331     9     0.000000     1.631760     2
   CG2O5    CG321    CG321    CG331     9   180.000000     1.464400     3
   CG2O5    CG321    CG321    CG331     9     0.000000     0.460240     4
   CG2O5    CG321    CG321    CG331     9   180.000000     0.376560     6
   CG2O5    CG321    CG321    NG301     9   180.000000     0.125520     1
   CG2O5    CG321    CG321    NG301     9   180.000000     1.046000     2
   CG2O5    CG321    CG321    NG301     9   180.000000     2.468560     3
   CG2O5    CG321    CG321    NG301     9   180.000000     2.552240     4
   CG2O5    CG321    CG321    NG311     9   180.000000     5.732080     1
   CG2O5    CG321    CG321    NG311     9   180.000000    12.719360     2
   CG2O5    CG321    CG321    NG311     9   180.000000     1.757280     3
   CG2O5    CG321    CG321    NG311     9   180.000000     1.548080     6
   CG2O5    CG321    CG321   OG3C61     9   180.000000     0.000000     1
   CG2O5    CG321    CG321   OG3C61     9   180.000000     0.209200     2
   CG2O5    CG321    CG321   OG3C61     9   180.000000     0.794960     3
   CG2O5    CG321    CG321     HGA2     9     0.000000     0.815880     3
   CG2O5    CG321    CG324    NG3P1     9     0.000000     0.836800     3
   CG2O5    CG321    CG324     HGA2     9     0.000000     0.836800     3
   CG2O5    CG321    CG331     HGA3     9     0.000000     0.669440     3
   CG2O5    CG321   CG3C50   CG3C52     9     0.000000     0.669440     3
   CG2O5    CG321   CG3C50   CG3C52     9   180.000000     0.209200     4
   CG2O5    CG321   CG3C50   OG3C61     9   180.000000     0.292880     1
   CG2O5    CG321   CG3C50   OG3C61     9     0.000000     3.556400     3
   CG2O5    CG321   CG3C50   OG3R60     9   180.000000     1.548080     1
   CG2O5    CG321   CG3C50   OG3R60     9     0.000000     3.556400     3
   CG2O5    CG321   CG3RC1   CG3C52     9   180.000000     0.251040     3
   CG2O5    CG321   CG3RC1   CG3C52     9   180.000000     0.083680     4
   CG2O5    CG321   CG3RC1   CG3RC1     9   180.000000     2.133840     3
   CG2O5    CG321   CG3RC1    NG2S0     9   180.000000     5.857600     3
   CG2O5    CG321   CG3RC1     HGA1     9     0.000000     0.000000     3
   CG2O5    CG321    NG301    CG311     9     0.000000     8.368000     1
   CG2O5    CG321    NG301    CG311     9     0.000000     7.531200     2
   CG2O5    CG321    NG301    CG311     9     0.000000     2.092000     3
   CG2O5    CG321    NG301    CG331     9     0.000000     8.368000     1
   CG2O5    CG321    NG301    CG331     9     0.000000     7.531200     2
   CG2O5    CG321    NG301    CG331     9     0.000000     2.092000     3
   CG2O5    CG321    SG311    CG321     9   180.000000     0.663164     1
   CG2O5    CG321    SG311    CG321     9     0.000000     3.046789     3
   CG2O5    CG321    SG311    CG331     9   180.000000     2.730060     1
   CG2O5    CG321    SG311    CG331     9     0.000000     2.879010     3
   CG2O5    CG321      CT1        C     9     0.000000     0.836800     3
   CG2O5    CG324    NG3P1    CG324     9   180.000000     3.347200     1
   CG2O5    CG324    NG3P1    CG324     9   180.000000     9.162960     2
   CG2O5    CG324    NG3P1    CG324     9     0.000000     1.589920     3
   CG2O5    CG324    NG3P1    CG334     9   180.000000     8.409840     1
   CG2O5    CG324    NG3P1    CG334     9     0.000000     0.000000     2
   CG2O5    CG324    NG3P1     HGP2     9     0.000000     2.301200     3
   CG2O5   CG3C31   CG3C31    CG331     9     0.000000     1.129680     2
   CG2O5   CG3C31   CG3C31    CG331     9   180.000000     0.711280     6
   CG2O5   CG3C31   CG3C31   OG3C31     9     0.000000    22.426240     2
   CG2O5   CG3C31   CG3C31   OG3C31     9     0.000000     3.054320     6
   CG2O5   CG3C31   OG3C31   CG3C31     9     0.000000     1.966480     3
   CG2O5   CG3C31   OG3C31   CG3C31     9     0.000000     5.439200     5
   CG2O5   CG3C31   OG3C31   CG3C31     9   180.000000     3.891120     6
   CG2O5   CG3C50   OG3C51   CG3C51     9     0.000000     0.000000     2
   CG2O5   CG3C50   OG3C51   CG3C51     9     0.000000    12.719360     3
   CG2O5   CG3C51   CG3C51    CG321     9     0.000000     5.983120     2
   CG2O5   CG3C51   CG3C51    CG321     9   180.000000     1.548080     3
   CG2O5   CG3C51   CG3C51   CG3C52     9     0.000000     0.585760     3
   CG2O5   CG3C51   CG3C51     HGA1     9     0.000000     0.585760     3
   CG2O5   CG3C51   CG3C52   CG3C52     9     0.000000     0.585760     3
   CG2O5   CG3C51   CG3C52     HGA2     9     0.000000     0.585760     3
   CG2O5   CG3C52   CG3C52   CG3C52     9     0.000000     0.585760     3
   CG2O5   CG3C52   CG3C52   NG3C51     9     0.000000     0.000000     2
   CG2O5   CG3C52   CG3C52   NG3C51     9   180.000000     0.836800     3
   CG2O5   CG3C52   CG3C52     HGA2     9     0.000000     0.585760     3
   CG2O5   CG3C52   CG3RC1    CG331     9   180.000000     1.631760     2
   CG2O5   CG3C52   CG3RC1    CG331     9     0.000000     3.598240     3
   CG2O5   CG3C52   CG3RC1   CG3C52     9     0.000000     4.309520     3
   CG2O5   CG3C52   CG3RC1   CG3C52     9   180.000000     0.543920     6
   CG2O5   CG3C52   CG3RC1   CG3RC1     9     0.000000     0.585760     2
   CG2O5   CG3C52   CG3RC1   CG3RC1     9     0.000000     0.083680     3
   CG2O5   CG3C52   CG3RC1     HGA1     9     0.000000     0.000000     3
   CG2O5   CG3C52   NG3C51    CG331     9   180.000000     0.292880     3
   CG2O5   CG3C52   NG3C51   CG3C52     9   180.000000     1.548080     3
   CG2O5   CG3RC1   CG3RC1    CG321     9     0.000000     0.000000     2
   CG2O5   CG3RC1   CG3RC1    CG321     9   180.000000     2.008320     3
   CG2O5   CG3RC1   CG3RC1    CG331     9     0.000000     0.083680     2
   CG2O5   CG3RC1   CG3RC1    CG331     9     0.000000     4.058480     3
   CG2O5   CG3RC1   CG3RC1   CG3C31     9     0.000000     1.422560     2
   CG2O5   CG3RC1   CG3RC1   CG3C31     9   180.000000     3.263520     3
   CG2O5   CG3RC1   CG3RC1   CG3RC1     9     0.000000     0.627600     3
   CG2O5   CG3RC1   CG3RC1   OG3C31     9     0.000000    10.585520     2
   CG2O5   CG3RC1   CG3RC1   OG3C31     9   180.000000     2.343040     4
   CG2O5   CG3RC1   CG3RC1   OG3C51     9     0.000000     0.334720     2
   CG2O5   CG3RC1   CG3RC1   OG3C51     9   180.000000    13.723520     3
   CG2O5   CG3RC1   CG3RC1   OG3R60     9     0.000000     0.376560     2
   CG2O5   CG3RC1   CG3RC1   OG3R60     9     0.000000     0.460240     3
   CG2O5   CG3RC1   CG3RC1     HGA1     9     0.000000     0.000000     3
   CG2O5   CG3RC1   OG3C31   CG3RC1     9     0.000000     5.271840     2
   CG2O5   CG3RC1   OG3C31   CG3RC1     9   180.000000     5.732080     3
   CG2O5   CG3RC1   OG3C31   CG3RC1     9   180.000000     0.920480     4
  CG2R51   CG2D1O   CG2D1O    NG311     9   180.000000     4.058480     2
  CG2R51   CG2D1O   CG2D1O     HGA4     9     0.000000     0.000000     2
  CG2R51   CG2D2O   CG2D2O    NG311     9   180.000000     4.058480     2
  CG2R51   CG2D2O   CG2D2O     HGA4     9     0.000000     0.000000     2
  CG2R51   CG2DC1   CG2DC1    CG321     9   180.000000     2.343040     1
  CG2R51   CG2DC1   CG2DC1    CG321     9   180.000000    29.162480     2
  CG2R51   CG2DC1   CG2DC1     HGA4     9   180.000000    22.051772     2
  CG2R51   CG2DC1   CG2DC3     HGA5     9   180.000000    14.644000     2
  CG2R51   CG2DC1   CG2R61   CG2R61     9   180.000000     4.393200     2
  CG2R51   CG2DC1   CG2R61   CG2R61     9   180.000000     0.292880     4
  CG2R51   CG2DC1    CG321    CG321     9     0.000000     0.794960     3
  CG2R51   CG2DC1    CG321     HGA2     9   180.000000     2.510400     3
  CG2R51   CG2DC1    CG324    NG3P2     9   180.000000     1.589920     2
  CG2R51   CG2DC1    CG324    NG3P2     9   180.000000     6.108640     3
  CG2R51   CG2DC1    CG324     HGA2     9   180.000000     2.510400     3
  CG2R51   CG2DC1    NG2D1    CG311     9   180.000000     6.108640     2
  CG2R51   CG2DC2   CG2DC2    CG321     9   180.000000     2.343040     1
  CG2R51   CG2DC2   CG2DC2    CG321     9   180.000000    29.162480     2
  CG2R51   CG2DC2   CG2DC2     HGA4     9   180.000000    22.051772     2
  CG2R51   CG2DC2   CG2DC3     HGA5     9   180.000000    14.644000     2
  CG2R51   CG2DC2   CG2R61   CG2R61     9   180.000000     4.393200     2
  CG2R51   CG2DC2   CG2R61   CG2R61     9   180.000000     0.292880     4
  CG2R51   CG2DC2    CG321    CG321     9     0.000000     0.794960     3
  CG2R51   CG2DC2    CG321     HGA2     9   180.000000     2.510400     3
  CG2R51   CG2DC2    CG324    NG3P2     9   180.000000     1.589920     2
  CG2R51   CG2DC2    CG324    NG3P2     9   180.000000     6.108640     3
  CG2R51   CG2DC2    CG324     HGA2     9   180.000000     2.510400     3
  CG2R51   CG2DC2    NG2D1    CG311     9   180.000000     6.108640     2
  CG2R51    CG2N2    NG2P1     HGP2     9   180.000000     8.368000     2
  CG2R51    CG2O1    NG2S1    CG301     9     0.000000     6.694400     1
  CG2R51    CG2O1    NG2S1    CG301     9   180.000000    16.736000     2
  CG2R51    CG2O1    NG2S1    CG321     9     0.000000     6.694400     1
  CG2R51    CG2O1    NG2S1    CG321     9   180.000000    16.736000     2
  CG2R51    CG2O1    NG2S1    CG331     9     0.000000     6.694400     1
  CG2R51    CG2O1    NG2S1    CG331     9   180.000000    16.736000     2
  CG2R51    CG2O1    NG2S1     HGP1     9   180.000000     4.184000     2
  CG2R51    CG2O1    NG2S2     HGP1     9   180.000000     4.184000     2
  CG2R51    CG2O2    OG311     HGP1     9   180.000000     4.058480     1
  CG2R51    CG2O2    OG311     HGP1     9   180.000000    11.296800     2
  CG2R51    CG2O2    OG311     HGP1     9   180.000000     0.209200     3
  CG2R51    CG2O2    OG311     HGP1     9   180.000000     1.046000     6
  CG2R51    CG2O5    CG2O5    OG2D3     9   180.000000     0.028870     2
  CG2R51    CG2O5   CG2R61   CG2R61     9   180.000000     3.807440     2
  CG2R51    CG2O5    CG321    CG321     9     0.000000     1.673600     1
  CG2R51    CG2O5    CG321    CG321     9   180.000000     0.711280     2
  CG2R51    CG2O5    CG321    CG321     9   180.000000     0.543920     3
  CG2R51    CG2O5    CG321    CG321     9   180.000000     0.418400     6
  CG2R51    CG2O5    CG321     HGA2     9     0.000000     0.418400     3
  CG2R51    CG2O5    CG331     HGA3     9     0.000000     0.418400     3
  CG2R51   CG2R51   CG2R51   CG2R51     9   180.000000    62.760000     2
  CG2R51   CG2R51   CG2R51   CG2R53     9   180.000000    62.760000     2
  CG2R51   CG2R51   CG2R51   CG2R57     9   180.000000    62.760000     2
  CG2R51   CG2R51   CG2R51   CG2R61     9     0.000000     0.000000     2
  CG2R51   CG2R51   CG2R51   CG2R62     9     0.000000     0.000000     2
  CG2R51   CG2R51   CG2R51   CG2R64     9     0.000000     0.167360     2
  CG2R51   CG2R51   CG2R51   CG2RC0     9   180.000000     8.368000     2
  CG2R51   CG2R51   CG2R51   CG2RC7     9   180.000000    37.656000     2
  CG2R51   CG2R51   CG2R51    CG301     9   180.000000    17.991200     2
  CG2R51   CG2R51   CG2R51    CG311     9   180.000000    17.991200     2
  CG2R51   CG2R51   CG2R51    CG314     9   180.000000    17.991200     2
  CG2R51   CG2R51   CG2R51    CG321     9   180.000000    17.991200     2
  CG2R51   CG2R51   CG2R51    CG324     9   180.000000    17.991200     2
  CG2R51   CG2R51   CG2R51    CG331     9   180.000000    17.991200     2
  CG2R51   CG2R51   CG2R51   CG3C52     9   180.000000    16.736000     2
  CG2R51   CG2R51   CG2R51   NG2R51     9   180.000000    16.736000     2
  CG2R51   CG2R51   CG2R51   NG2R57     9   180.000000    16.736000     2
  CG2R51   CG2R51   CG2R51   NG2RC0     9   180.000000    66.944000     2
  CG2R51   CG2R51   CG2R51   OG2R50     9   180.000000    35.564000     2
  CG2R51   CG2R51   CG2R51   OG3R60     9   180.000000    17.196240     2
  CG2R51   CG2R51   CG2R51   SG2R50     9   180.000000    35.564000     2
  CG2R51   CG2R51   CG2R51    SG3O2     9   180.000000     6.694400     2
  CG2R51   CG2R51   CG2R51    HGR51     9   180.000000     4.184000     2
  CG2R51   CG2R51   CG2R51    HGR52     9   180.000000     6.276000     2
  CG2R51   CG2R51   CG2R52   CG2DC1     9   180.000000     0.000000     2
  CG2R51   CG2R51   CG2R52   CG2DC2     9   180.000000     0.000000     2
  CG2R51   CG2R51   CG2R52    CG2O1     9   180.000000     0.000000     2
  CG2R51   CG2R51   CG2R52    CG2O2     9   180.000000     0.000000     2
  CG2R51   CG2R51   CG2R52    CG2O3     9   180.000000    10.208960     2
  CG2R51   CG2R51   CG2R52    CG2O4     9   180.000000     0.000000     2
  CG2R51   CG2R51   CG2R52    CG2O5     9   180.000000     0.000000     2
  CG2R51   CG2R51   CG2R52   CG2R61     9   180.000000     3.138000     2
  CG2R51   CG2R51   CG2R52   CG2R62     9   180.000000    16.903360     2
  CG2R51   CG2R51   CG2R52    CG301     9   180.000000    12.552000     2
  CG2R51   CG2R51   CG2R52    CG302     9   180.000000    28.660400     2
  CG2R51   CG2R51   CG2R52    CG311     9   180.000000    12.552000     2
  CG2R51   CG2R51   CG2R52    CG312     9   180.000000    12.008080     2
  CG2R51   CG2R51   CG2R52    CG314     9   180.000000    17.991200     2
  CG2R51   CG2R51   CG2R52    CG321     9   180.000000    12.552000     2
  CG2R51   CG2R51   CG2R52    CG331     9   180.000000    19.037200     2
  CG2R51   CG2R51   CG2R52   CG3C31     9   180.000000    12.552000     2
  CG2R51   CG2R51   CG2R52   CG3C52     9   180.000000    38.325440     2
  CG2R51   CG2R51   CG2R52   NG2R50     9   180.000000    35.564000     2
  CG2R51   CG2R51   CG2R52   NG2R52     9   180.000000    17.363600     2
  CG2R51   CG2R51   CG2R52    HGR52     9   180.000000    15.899200     2
  CG2R51   CG2R51   CG2R53   NG2R50     9   180.000000    27.949120     2
  CG2R51   CG2R51   CG2R53   NG2R51     9     0.000000     0.585760     2
  CG2R51   CG2R51   CG2R53   NG2R52     9   180.000000    11.673360     2
  CG2R51   CG2R51   CG2R53   NG2R53     9     0.000000     0.418400     2
  CG2R51   CG2R51   CG2R53    NG2S1     9   180.000000    23.388560     2
  CG2R51   CG2R51   CG2R53    OG2D1     9   180.000000     5.020800     2
  CG2R51   CG2R51   CG2R53   OG2R50     9     0.000000     0.000000     2
  CG2R51   CG2R51   CG2R53   OG3C51     9   180.000000     1.715440     1
  CG2R51   CG2R51   CG2R53   SG2R50     9   180.000000     3.681920     2
  CG2R51   CG2R51   CG2R57   CG2R51     9   180.000000    62.760000     2
  CG2R51   CG2R51   CG2R57   CG2R57     9   180.000000     8.786400     2
  CG2R51   CG2R51   CG2R57   CG3C51     9     0.000000     0.041840     2
  CG2R51   CG2R51   CG2R57   NG2R50     9   180.000000    38.743840     2
  CG2R51   CG2R51   CG2R57   NG2R57     9   180.000000     7.949600     2
  CG2R51   CG2R51   CG2R57   OG2R50     9     0.000000     0.000000     2
  CG2R51   CG2R51   CG2R57   SG2R50     9   180.000000     7.112800     2
  CG2R51   CG2R51   CG2R61   CG2R61     9   180.000000     1.422560     2
  CG2R51   CG2R51   CG2R61   CG2R61     9     0.000000     4.476880     4
  CG2R51   CG2R51   CG2R61   CG2R62     9   180.000000     3.891120     2
  CG2R51   CG2R51   CG2R61   CG2R62     9     0.000000     1.338880     4
  CG2R51   CG2R51   CG2R61   CG2R64     9   180.000000     3.807440     2
  CG2R51   CG2R51   CG2R61   CG2R64     9   180.000000     1.046000     4
  CG2R51   CG2R51   CG2R61   CG2R66     9     0.000000     0.711280     2
  CG2R51   CG2R51   CG2R61   CG2R66     9     0.000000     0.502080     4
  CG2R51   CG2R51   CG2R61   CG2R66     9     0.000000     1.338880     6
  CG2R51   CG2R51   CG2R61   NG2R60     9     0.000000     0.000000     2
  CG2R51   CG2R51   CG2R61   NG2R62     9   180.000000    24.978480     2
  CG2R51   CG2R51   CG2R61   NG2R62     9   180.000000     4.225840     4
  CG2R51   CG2R51   CG2R62   CG2R62     9   180.000000     3.556400     2
  CG2R51   CG2R51   CG2R62   CG2R62     9     0.000000     0.000000     4
  CG2R51   CG2R51   CG2R62   NG2R62     9   180.000000     4.895280     2
  CG2R51   CG2R51   CG2R62   NG2R62     9     0.000000     0.251040     4
  CG2R51   CG2R51   CG2R64   NG2R61     9   180.000000     6.150480     2
  CG2R51   CG2R51   CG2R64   NG2R61     9     0.000000     1.087840     6
  CG2R51   CG2R51   CG2R64   NG2R62     9     0.000000     1.213360     2
  CG2R51   CG2R51   CG2R64   NG2R62     9     0.000000     4.978960     6
  CG2R51   CG2R51   CG2RC0   CG2R61     9   180.000000    12.552000     2
  CG2R51   CG2R51   CG2RC0   CG2R62     9   180.000000    12.552000     2
  CG2R51   CG2R51   CG2RC0   CG2R63     9   180.000000    12.552000     2
  CG2R51   CG2R51   CG2RC0   CG2R64     9   180.000000    12.552000     2
  CG2R51   CG2R51   CG2RC0   CG2R66     9   180.000000    12.552000     2
  CG2R51   CG2R51   CG2RC0   CG2RC0     9   180.000000    16.736000     2
  CG2R51   CG2R51   CG2RC0   NG2R62     9   180.000000    10.585520     2
  CG2R51   CG2R51   CG2RC0   NG2RC0     9   180.000000    50.208000     2
  CG2R51   CG2R51   CG2RC7   CG2R71     9   180.000000     8.368000     2
  CG2R51   CG2R51   CG2RC7   CG2RC7     9   180.000000    16.736000     2
  CG2R51   CG2R51    CG301    CG2N2     9     0.000000     3.054320     1
  CG2R51   CG2R51    CG301    CG2N2     9     0.000000    18.953520     2
  CG2R51   CG2R51    CG301    CG2N2     9   180.000000     0.376560     4
  CG2R51   CG2R51    CG301    CG311     9     0.000000     0.836800     1
  CG2R51   CG2R51    CG301    CG311     9     0.000000     1.129680     2
  CG2R51   CG2R51    CG301    CG311     9     0.000000     0.000000     3
  CG2R51   CG2R51    CG301    CG321     9     0.000000     0.836800     1
  CG2R51   CG2R51    CG301    CG321     9     0.000000     1.129680     2
  CG2R51   CG2R51    CG301    CG321     9     0.000000     0.000000     3
  CG2R51   CG2R51    CG301    CG324     9     0.000000     2.510400     1
  CG2R51   CG2R51    CG301    CG324     9   180.000000    10.460000     2
  CG2R51   CG2R51    CG301    CG324     9     0.000000     5.355520     3
  CG2R51   CG2R51    CG301    CG331     9     0.000000     0.836800     1
  CG2R51   CG2R51    CG301    CG331     9     0.000000     1.129680     2
  CG2R51   CG2R51    CG301    CG331     9     0.000000     0.000000     3
  CG2R51   CG2R51    CG301    NG2S0     9     0.000000     0.083680     1
  CG2R51   CG2R51    CG301    NG2S0     9     0.000000     0.083680     2
  CG2R51   CG2R51    CG301    NG2S0     9     0.000000     2.384880     3
  CG2R51   CG2R51    CG301    NG311     9     0.000000     0.041840     2
  CG2R51   CG2R51    CG301    NG321     9   180.000000     0.711280     2
  CG2R51   CG2R51    CG301    NG321     9     0.000000     2.928800     4
  CG2R51   CG2R51    CG301    OG311     9     0.000000     0.543920     1
  CG2R51   CG2R51    CG301    OG311     9   180.000000     1.004160     2
  CG2R51   CG2R51    CG301    OG311     9   180.000000     0.251040     3
  CG2R51   CG2R51    CG302     FGA3     9   180.000000     0.000000     1
  CG2R51   CG2R51    CG302     FGA3     9     0.000000     0.000000     2
  CG2R51   CG2R51    CG302     FGA3     9     0.000000     0.627600     3
  CG2R51   CG2R51    CG311    CG2O1     9     0.000000     0.627600     1
  CG2R51   CG2R51    CG311    CG2O1     9   180.000000    20.334240     2
  CG2R51   CG2R51    CG311    CG2O1     9     0.000000     0.460240     3
  CG2R51   CG2R51    CG311    CG2O3     9     0.000000     8.911920     1
  CG2R51   CG2R51    CG311    CG2O3     9     0.000000     1.589920     2
  CG2R51   CG2R51    CG311   CG2R51     9     0.000000     0.125520     1
  CG2R51   CG2R51    CG311   CG2R51     9     0.000000     2.301200     2
  CG2R51   CG2R51    CG311   CG2R51     9   180.000000     1.631760     3
  CG2R51   CG2R51    CG311   CG2R61     9   180.000000     0.083680     1
  CG2R51   CG2R51    CG311   CG2R61     9     0.000000     0.627600     2
  CG2R51   CG2R51    CG311   CG2R61     9     0.000000     0.753120     3
  CG2R51   CG2R51    CG311    CG302     9   180.000000     0.669440     1
  CG2R51   CG2R51    CG311    CG302     9   180.000000     0.167360     2
  CG2R51   CG2R51    CG311    CG302     9     0.000000     2.050160     3
  CG2R51   CG2R51    CG311    CG314     9     0.000000     0.836800     1
  CG2R51   CG2R51    CG311    CG314     9     0.000000     1.129680     2
  CG2R51   CG2R51    CG311    CG314     9     0.000000     0.000000     3
  CG2R51   CG2R51    CG311    CG321     9     0.000000     0.836800     1
  CG2R51   CG2R51    CG311    CG321     9     0.000000     1.129680     2
  CG2R51   CG2R51    CG311    CG321     9     0.000000     0.000000     3
  CG2R51   CG2R51    CG311    CG324     9     0.000000     0.836800     1
  CG2R51   CG2R51    CG311    CG324     9     0.000000     1.129680     2
  CG2R51   CG2R51    CG311    CG324     9     0.000000     0.000000     3
  CG2R51   CG2R51    CG311    CG331     9     0.000000     0.836800     1
  CG2R51   CG2R51    CG311    CG331     9     0.000000     1.129680     2
  CG2R51   CG2R51    CG311    CG331     9     0.000000     0.000000     3
  CG2R51   CG2R51    CG311    NG2D1     9   180.000000     6.987280     1
  CG2R51   CG2R51    CG311    NG2D1     9     0.000000     5.648400     2
  CG2R51   CG2R51    CG311    NG2D1     9     0.000000     3.389040     3
  CG2R51   CG2R51    CG311    NG2D1     9   180.000000     1.715440     4
  CG2R51   CG2R51    CG311   NG2R53     9   180.000000     0.920480     1
  CG2R51   CG2R51    CG311   NG2R53     9     0.000000     2.426720     2
  CG2R51   CG2R51    CG311   NG2R53     9     0.000000     2.343040     3
  CG2R51   CG2R51    CG311   NG2R53     9   180.000000     1.255200     4
  CG2R51   CG2R51    CG311    NG2S0     9     0.000000     0.711280     1
  CG2R51   CG2R51    CG311    NG2S0     9   180.000000    11.589680     2
  CG2R51   CG2R51    CG311    NG2S0     9     0.000000     1.589920     3
  CG2R51   CG2R51    CG311    NG2S1     9   180.000000     1.715440     3
  CG2R51   CG2R51    CG311    NG2S1     9     0.000000     0.292880     4
  CG2R51   CG2R51    CG311    NG301     9     0.000000     0.836800     1
  CG2R51   CG2R51    CG311    NG301     9     0.000000     1.129680     2
  CG2R51   CG2R51    CG311    NG311     9   180.000000     1.715440     2
  CG2R51   CG2R51    CG311    NG321     9   180.000000     1.715440     2
  CG2R51   CG2R51    CG311    OG301     9     0.000000     1.046000     1
  CG2R51   CG2R51    CG311    OG301     9   180.000000     2.719600     2
  CG2R51   CG2R51    CG311    OG301     9     0.000000     0.794960     3
  CG2R51   CG2R51    CG311    OG301     9     0.000000     0.125520     6
  CG2R51   CG2R51    CG311    OG311     9     0.000000     0.525510     1
  CG2R51   CG2R51    CG311    OG311     9   180.000000     0.993700     2
  CG2R51   CG2R51    CG311    OG311     9   180.000000     0.263174     3
  CG2R51   CG2R51    CG311   OG3C61     9     0.000000     2.426720     1
  CG2R51   CG2R51    CG311   OG3C61     9   180.000000     0.627600     2
  CG2R51   CG2R51    CG311   OG3C61     9     0.000000     0.083680     3
  CG2R51   CG2R51    CG311   OG3C61     9   180.000000     0.000000     6
  CG2R51   CG2R51    CG311    SG311     9   180.000000     6.024960     1
  CG2R51   CG2R51    CG311    SG311     9   180.000000     0.502080     2
  CG2R51   CG2R51    CG311     HGA1     9     0.000000     0.000000     3
  CG2R51   CG2R51    CG312     FGA2     9     0.000000     5.773920     1
  CG2R51   CG2R51    CG312     FGA2     9   180.000000     0.125520     2
  CG2R51   CG2R51    CG312     FGA2     9     0.000000     0.794960     3
  CG2R51   CG2R51    CG312     HGA7     9     0.000000     0.000000     3
  CG2R51   CG2R51    CG314    CG2O3     9     0.000000     8.907318     1
  CG2R51   CG2R51    CG314    CG2O3     9     0.000000     1.604982     2
  CG2R51   CG2R51    CG314    CG321     9     0.000000     0.836800     1
  CG2R51   CG2R51    CG314    CG321     9     0.000000     1.129680     2
  CG2R51   CG2R51    CG314    CG321     9     0.000000     0.000000     3
  CG2R51   CG2R51    CG314    CG331     9     0.000000     0.836800     1
  CG2R51   CG2R51    CG314    CG331     9     0.000000     1.129680     2
  CG2R51   CG2R51    CG314    CG331     9     0.000000     0.000000     3
  CG2R51   CG2R51    CG314    NG3P1     9     0.000000     0.292880     1
  CG2R51   CG2R51    CG314    NG3P1     9     0.000000     0.000000     2
  CG2R51   CG2R51    CG314    NG3P2     9     0.000000     0.292880     1
  CG2R51   CG2R51    CG314    NG3P2     9     0.000000     0.000000     2
  CG2R51   CG2R51    CG314    NG3P3     9     0.000000     0.279073     1
  CG2R51   CG2R51    CG314    NG3P3     9     0.000000     0.019665     2
  CG2R51   CG2R51    CG314     HGA1     9     0.000000     0.000000     3
  CG2R51   CG2R51    CG321    CG2O1     9   180.000000     0.000000     1
  CG2R51   CG2R51    CG321    CG2O1     9   180.000000     0.753120     2
  CG2R51   CG2R51    CG321    CG2O5     9     0.000000     8.660880     1
  CG2R51   CG2R51    CG321    CG2O5     9     0.000000     2.343040     2
  CG2R51   CG2R51    CG321   CG2R51     9     0.000000     0.125520     1
  CG2R51   CG2R51    CG321   CG2R51     9     0.000000     2.301200     2
  CG2R51   CG2R51    CG321   CG2R51     9   180.000000     1.631760     3
  CG2R51   CG2R51    CG321    CG301     9     0.000000     0.836800     1
  CG2R51   CG2R51    CG321    CG301     9     0.000000     1.129680     2
  CG2R51   CG2R51    CG321    CG301     9     0.000000     0.000000     3
  CG2R51   CG2R51    CG321    CG311     9     0.000000     0.836800     1
  CG2R51   CG2R51    CG321    CG311     9     0.000000     1.129680     2
  CG2R51   CG2R51    CG321    CG311     9     0.000000     0.000000     3
  CG2R51   CG2R51    CG321    CG314     9     0.000000     0.836800     1
  CG2R51   CG2R51    CG321    CG314     9     0.000000     1.129680     2
  CG2R51   CG2R51    CG321    CG314     9     0.000000     0.000000     3
  CG2R51   CG2R51    CG321    CG321     9     0.000000     0.836800     1
  CG2R51   CG2R51    CG321    CG321     9     0.000000     1.129680     2
  CG2R51   CG2R51    CG321    CG324     9     0.000000     0.836800     1
  CG2R51   CG2R51    CG321    CG324     9     0.000000     1.129680     2
  CG2R51   CG2R51    CG321    CG324     9     0.000000     0.000000     3
  CG2R51   CG2R51    CG321    CG331     9     0.000000     0.836800     1
  CG2R51   CG2R51    CG321    CG331     9     0.000000     1.129680     2
  CG2R51   CG2R51    CG321    CG331     9     0.000000     0.000000     3
  CG2R51   CG2R51    CG321    NG2S0     9     0.000000     5.271840     1
  CG2R51   CG2R51    CG321    NG2S0     9     0.000000     0.125520     2
  CG2R51   CG2R51    CG321    NG2S0     9     0.000000     4.435040     3
  CG2R51   CG2R51    CG321    NG2S1     9     0.000000     0.251040     1
  CG2R51   CG2R51    CG321    NG2S1     9     0.000000     0.418400     2
  CG2R51   CG2R51    CG321    NG2S1     9     0.000000     0.543920     3
  CG2R51   CG2R51    CG321    NG2S1     9   180.000000     0.753120     4
  CG2R51   CG2R51    CG321    NG301     9     0.000000     0.836800     1
  CG2R51   CG2R51    CG321    NG301     9     0.000000     1.129680     2
  CG2R51   CG2R51    CG321    NG311     9   180.000000     1.715440     2
  CG2R51   CG2R51    CG321    NG321     9   180.000000     1.715440     2
  CG2R51   CG2R51    CG321    OG311     9     0.000000     0.543920     1
  CG2R51   CG2R51    CG321    OG311     9   180.000000     1.004160     2
  CG2R51   CG2R51    CG321    OG311     9   180.000000     0.251040     3
  CG2R51   CG2R51    CG321    SG301     9   180.000000     6.027470     1
  CG2R51   CG2R51    CG321    SG301     9   180.000000     0.519653     2
  CG2R51   CG2R51    CG321    SG311     9   180.000000     6.024960     1
  CG2R51   CG2R51    CG321    SG311     9   180.000000     0.502080     2
  CG2R51   CG2R51    CG321    SG3O2     9     0.000000     2.510400     1
  CG2R51   CG2R51    CG321    SG3O2     9     0.000000     0.125520     2
  CG2R51   CG2R51    CG321     HGA2     9     0.000000     0.000000     3
  CG2R51   CG2R51    CG324    NG3P1     9     0.000000     2.510400     2
  CG2R51   CG2R51    CG324    NG3P2     9     0.000000     2.510400     2
  CG2R51   CG2R51    CG324    NG3P3     9     0.000000    20.083200     1
  CG2R51   CG2R51    CG324    NG3P3     9     0.000000     0.836800     2
  CG2R51   CG2R51    CG324     HGA2     9     0.000000     0.000000     3
  CG2R51   CG2R51    CG331     HGA3     9     0.000000     0.000000     3
  CG2R51   CG2R51   CG3C31   CG3C31     9     0.000000     0.627600     1
  CG2R51   CG2R51   CG3C31   CG3C31     9     0.000000     0.251040     2
  CG2R51   CG2R51   CG3C31   CG3C31     9     0.000000     1.464400     4
  CG2R51   CG2R51   CG3C31     HGA1     9     0.000000     0.000000     3
  CG2R51   CG2R51   CG3C41   CG3C41     9   180.000000    16.443120     1
  CG2R51   CG2R51   CG3C41   CG3C41     9     0.000000     2.677760     2
  CG2R51   CG2R51   CG3C41   CG3C41     9   180.000000     1.422560     6
  CG2R51   CG2R51   CG3C41    NG3P1     9     0.000000     0.209200     2
  CG2R51   CG2R51   CG3C50   CG2RC0     9   180.000000    24.392720     2
  CG2R51   CG2R51   CG3C50   CG2RC0     9   180.000000     6.317840     3
  CG2R51   CG2R51   CG3C50    CG321     9     0.000000     0.083680     3
  CG2R51   CG2R51   CG3C50    CG331     9     0.000000     0.064015     3
  CG2R51   CG2R51   CG3C50   CG3C50     9   180.000000     1.464400     3
  CG2R51   CG2R51   CG3C50   CG3C52     9   180.000000     1.464400     3
  CG2R51   CG2R51   CG3C50   NG3C51     9   180.000000     2.928800     3
  CG2R51   CG2R51   CG3C50    OG311     9   180.000000     8.786400     3
  CG2R51   CG2R51   CG3C50   OG3C51     9   180.000000     1.087840     1
  CG2R51   CG2R51   CG3C50   OG3C51     9     0.000000     0.543920     2
  CG2R51   CG2R51   CG3C50   OG3C51     9   180.000000     5.983120     3
  CG2R51   CG2R51   CG3C51    CG2O1     9   180.000000     7.523669     3
  CG2R51   CG2R51   CG3C51    CG2O2     9   180.000000     7.531200     3
  CG2R51   CG2R51   CG3C51   CG2R53     9   180.000000    14.644000     3
  CG2R51   CG2R51   CG3C51   CG2R61     9     0.000000     1.087840     3
  CG2R51   CG2R51   CG3C51   CG2RC0     9   180.000000     6.276000     3
  CG2R51   CG2R51   CG3C51    CG321     9     0.000000     4.895280     3
  CG2R51   CG2R51   CG3C51    CG331     9     0.000000     0.083680     3
  CG2R51   CG2R51   CG3C51   CG3C51     9   180.000000     1.464400     3
  CG2R51   CG2R51   CG3C51   CG3C52     9   180.000000     1.464400     3
  CG2R51   CG2R51   CG3C51    NG2S0     9   180.000000    15.026418     2
  CG2R51   CG2R51   CG3C51    NG311     9     0.000000     7.112800     2
  CG2R51   CG2R51   CG3C51    NG311     9     0.000000    12.970400     3
  CG2R51   CG2R51   CG3C51   NG3C51     9   180.000000     2.928800     3
  CG2R51   CG2R51   CG3C51    OG301     9     0.000000     2.761440     3
  CG2R51   CG2R51   CG3C51    OG311     9   180.000000     8.786400     3
  CG2R51   CG2R51   CG3C51   OG3C51     9   180.000000     1.171520     1
  CG2R51   CG2R51   CG3C51   OG3C51     9   180.000000     4.100320     2
  CG2R51   CG2R51   CG3C51   OG3C51     9   180.000000     7.322000     3
  CG2R51   CG2R51   CG3C51    SG311     9   180.000000     3.996557     3
  CG2R51   CG2R51   CG3C51    SG3O1     9   180.000000     2.886960     2
  CG2R51   CG2R51   CG3C51    SG3O1     9   180.000000     1.255200     3
  CG2R51   CG2R51   CG3C51     HGA1     9     0.000000     0.000000     3
  CG2R51   CG2R51   CG3C52    CG2O5     9   180.000000     7.531200     3
  CG2R51   CG2R51   CG3C52   CG2R51     9   180.000000     8.577200     3
  CG2R51   CG2R51   CG3C52   CG2R52     9   180.000000    14.644000     3
  CG2R51   CG2R51   CG3C52   CG2R53     9   180.000000    14.644000     3
  CG2R51   CG2R51   CG3C52   CG2RC0     9   180.000000     6.276000     3
  CG2R51   CG2R51   CG3C52   CG3C50     9   180.000000     3.389040     2
  CG2R51   CG2R51   CG3C52   CG3C50     9   180.000000     7.029120     3
  CG2R51   CG2R51   CG3C52   CG3C50     9     0.000000     0.543920     6
  CG2R51   CG2R51   CG3C52   CG3C51     9   180.000000     0.209200     3
  CG2R51   CG2R51   CG3C52   CG3C52     9   180.000000     0.209200     3
  CG2R51   CG2R51   CG3C52   CG3C54     9   180.000000     2.092000     3
  CG2R51   CG2R51   CG3C52   NG2R50     9   180.000000    15.062400     2
  CG2R51   CG2R51   CG3C52   NG2R53     9     0.000000     1.046000     2
  CG2R51   CG2R51   CG3C52    NG2S0     9   180.000000     1.087840     2
  CG2R51   CG2R51   CG3C52   NG3C51     9   180.000000     2.928800     3
  CG2R51   CG2R51   CG3C52   OG3C51     9   180.000000     1.171520     1
  CG2R51   CG2R51   CG3C52   OG3C51     9   180.000000     4.100320     2
  CG2R51   CG2R51   CG3C52   OG3C51     9   180.000000     7.322000     3
  CG2R51   CG2R51   CG3C52    SG311     9   180.000000     4.016640     3
  CG2R51   CG2R51   CG3C52    SG3O2     9   180.000000     3.598240     2
  CG2R51   CG2R51   CG3C52    SG3O2     9     0.000000     0.167360     3
  CG2R51   CG2R51   CG3C52    SG3O3     9     0.000000     0.000000     2
  CG2R51   CG2R51   CG3C52    SG3O3     9     0.000000     0.083680     3
  CG2R51   CG2R51   CG3C52     HGA2     9     0.000000     0.000000     3
  CG2R51   CG2R51   CG3C53   CG3C51     9   180.000000     1.464400     3
  CG2R51   CG2R51   CG3C53   CG3C52     9   180.000000     1.464400     3
  CG2R51   CG2R51   CG3C53    NG3P2     9   180.000000     8.786400     3
  CG2R51   CG2R51   CG3C53    NG3P3     9   180.000000     8.786400     3
  CG2R51   CG2R51   CG3C53     HGA1     9     0.000000     0.000000     3
  CG2R51   CG2R51   CG3C54   NG2R52     9   180.000000    11.715200     2
  CG2R51   CG2R51   CG3C54    NG3P2     9   180.000000     3.765600     3
  CG2R51   CG2R51   CG3C54     HGA2     9     0.000000     0.000000     3
  CG2R51   CG2R51   CG3RC1   CG3C52     9   180.000000     5.690240     2
  CG2R51   CG2R51   CG3RC1   CG3C52     9   180.000000     3.514560     3
  CG2R51   CG2R51   CG3RC1    SG3O3     9   180.000000    14.392960     2
  CG2R51   CG2R51   CG3RC1    SG3O3     9   180.000000     1.589920     3
  CG2R51   CG2R51   CG3RC1     HGA1     9     0.000000     0.000000     3
  CG2R51   CG2R51    NG2O1    OG2N1     9   180.000000     0.920480     2
  CG2R51   CG2R51   NG2R50   CG2R52     9   180.000000    22.593600     2
  CG2R51   CG2R51   NG2R50   CG2R53     9   180.000000    58.576000     2
  CG2R51   CG2R51   NG2R50   CG2R57     9   180.000000    22.593600     2
  CG2R51   CG2R51   NG2R50   CG2RC0     9   180.000000    48.116000     2
  CG2R51   CG2R51   NG2R50   NG2R50     9   180.000000    35.564000     2
  CG2R51   CG2R51   NG2R50     HGP1     9   180.000000    58.576000     2
  CG2R51   CG2R51   NG2R50      CT2     9   180.000000    58.576000     2
  CG2R51   CG2R51   NG2R51    CG2O1     9   180.000000     0.000000     2
  CG2R51   CG2R51   NG2R51    CG2O6     9   180.000000     0.000000     2
  CG2R51   CG2R51   NG2R51   CG2R51     9   180.000000    41.840000     2
  CG2R51   CG2R51   NG2R51   CG2R53     9   180.000000    58.576000     2
  CG2R51   CG2R51   NG2R51   CG2R61     9     0.000000     0.000000     1
  CG2R51   CG2R51   NG2R51   CG2R62     9     0.000000     0.000000     1
  CG2R51   CG2R51   NG2R51   CG2R64     9   180.000000     0.836800     2
  CG2R51   CG2R51   NG2R51   CG2RC0     9   180.000000    20.920000     2
  CG2R51   CG2R51   NG2R51    CG301     9     0.000000     0.000000     1
  CG2R51   CG2R51   NG2R51    CG311     9     0.000000     0.000000     1
  CG2R51   CG2R51   NG2R51    CG321     9     0.000000     0.000000     1
  CG2R51   CG2R51   NG2R51    CG331     9   180.000000    46.024000     2
  CG2R51   CG2R51   NG2R51   CG3C51     9     0.000000     0.000000     1
  CG2R51   CG2R51   NG2R51   CG3C52     9     0.000000     7.489360     1
  CG2R51   CG2R51   NG2R51   CG3C52     9   180.000000     2.803280     2
  CG2R51   CG2R51   NG2R51   CG3C52     9   180.000000     0.711280     4
  CG2R51   CG2R51   NG2R51   NG2R50     9   180.000000    41.840000     2
  CG2R51   CG2R51   NG2R51   NG2R52     9   180.000000    12.803040     2
  CG2R51   CG2R51   NG2R51    NG3N1     9     0.000000     0.083680     2
  CG2R51   CG2R51   NG2R51   OG2R50     9     0.000000     0.000000     2
  CG2R51   CG2R51   NG2R51    OG301     9   180.000000     2.194090     2
  CG2R51   CG2R51   NG2R51    OG311     9   180.000000     2.175680     2
  CG2R51   CG2R51   NG2R51      PG2     9     0.000000     1.181562     1
  CG2R51   CG2R51   NG2R51     HGP1     9   180.000000     4.184000     2
  CG2R51   CG2R51   NG2R51      CT2     9     0.000000     0.000000     1
  CG2R51   CG2R51   NG2R51     CN7B     9   180.000000    46.024000     2
  CG2R51   CG2R51   NG2R52    CG2N2     9     0.000000     0.125520     2
  CG2R51   CG2R51   NG2R52    CG2O6     9   180.000000    15.899200     2
  CG2R51   CG2R51   NG2R52   CG2R53     9   180.000000    50.208000     2
  CG2R51   CG2R51   NG2R52   CG2R61     9   180.000000    24.685600     2
  CG2R51   CG2R51   NG2R52   CG2RC0     9   180.000000    50.208000     2
  CG2R51   CG2R51   NG2R52    CG314     9   180.000000     7.112800     2
  CG2R51   CG2R51   NG2R52    CG324     9   180.000000     7.112800     2
  CG2R51   CG2R51   NG2R52    CG334     9   180.000000     7.127862     2
  CG2R51   CG2R51   NG2R52   CG3C53     9   180.000000    25.104000     2
  CG2R51   CG2R51   NG2R52   CG3C54     9   180.000000    25.104000     2
  CG2R51   CG2R51   NG2R52   NG2R51     9     0.000000     0.836800     2
  CG2R51   CG2R51   NG2R52    NG3N1     9   180.000000    17.907520     2
  CG2R51   CG2R51   NG2R52    OG311     9     0.000000     0.167360     2
  CG2R51   CG2R51   NG2R52    OG312     9   180.000000    26.066320     2
  CG2R51   CG2R51   NG2R52     HGP2     9   180.000000     5.857600     2
  CG2R51   CG2R51   NG2R53   CG2R53     9   180.000000     5.522880     2
  CG2R51   CG2R51   NG2R53     HGP1     9   180.000000     1.840960     2
  CG2R51   CG2R51   NG2R57   CG2R51     9   180.000000    41.840000     2
  CG2R51   CG2R51   NG2R57   CG2R57     9   180.000000     0.836800     2
  CG2R51   CG2R51   NG2R57   NG2R57     9   180.000000     0.836800     2
  CG2R51   CG2R51   NG2R61   CG2R61     9     0.000000    11.589680     2
  CG2R51   CG2R51   NG2R61   CG2R62     9     0.000000     0.167360     2
  CG2R51   CG2R51   NG2R61   CG2R62     9   180.000000     0.292880     6
  CG2R51   CG2R51   NG2R61   CG2R64     9     0.000000    24.811120     2
  CG2R51   CG2R51   NG2RC0   CG2R61     9   180.000000    12.552000     2
  CG2R51   CG2R51   NG2RC0   CG2R62     9   180.000000    12.552000     2
  CG2R51   CG2R51   NG2RC0   CG2R63     9   180.000000    12.552000     2
  CG2R51   CG2R51   NG2RC0   CG2RC0     9   180.000000    37.656000     2
  CG2R51   CG2R51   NG2RC0   NG2R61     9     0.000000     0.000000     2
  CG2R51   CG2R51   NG2RC0   NG2R62     9   180.000000     6.485200     2
  CG2R51   CG2R51    NG2S1    CG2O1     9     0.000000     0.000000     2
  CG2R51   CG2R51    NG2S1     HGP1     9     0.000000     1.464400     2
  CG2R51   CG2R51    NG301    CG321     9   180.000000     7.573040     2
  CG2R51   CG2R51    NG301    CG321     9   180.000000     3.556400     4
  CG2R51   CG2R51    NG311    CG311     9   180.000000     8.953760     2
  CG2R51   CG2R51    NG311    CG311     9     0.000000     1.464400     4
  CG2R51   CG2R51    NG311   HGPAM1     9     0.000000     3.430880     2
  CG2R51   CG2R51    NG321   HGPAM2     9   180.000000     1.966480     2
  CG2R51   CG2R51    NG321   HGPAM2     9   180.000000     1.087840     3
  CG2R51   CG2R51   NG3C51   CG2R61     9     0.000000     0.000000     2
  CG2R51   CG2R51   NG3C51    CG331     9     0.000000     0.000000     2
  CG2R51   CG2R51   NG3C51   CG3C52     9   180.000000    33.472000     2
  CG2R51   CG2R51   NG3C51    SG3O3     9   180.000000    32.969920     2
  CG2R51   CG2R51   NG3C51     HGP1     9     0.000000     0.000000     3
  CG2R51   CG2R51    NG3P1    CG334     9     0.000000     3.012480     2
  CG2R51   CG2R51    NG3P1    CG334     9     0.000000     0.167360     3
  CG2R51   CG2R51    NG3P1   CG3C54     9   180.000000     3.807440     2
  CG2R51   CG2R51    NG3P1   CG3C54     9   180.000000     1.464400     3
  CG2R51   CG2R51    NG3P1     HGP2     9     0.000000     5.857600     2
  CG2R51   CG2R51    NG3P1     HGP2     9     0.000000     0.753120     3
  CG2R51   CG2R51    NG3P2   CG3C54     9     0.000000     1.255200     3
  CG2R51   CG2R51    NG3P2   NG3C51     9   180.000000     4.937120     2
  CG2R51   CG2R51    NG3P2   NG3C51     9     0.000000     0.209200     3
  CG2R51   CG2R51    NG3P2     HGP2     9   180.000000     1.255200     3
  CG2R51   CG2R51   OG2R50   CG2R51     9   180.000000    31.380000     2
  CG2R51   CG2R51   OG2R50   CG2R53     9   180.000000    35.564000     2
  CG2R51   CG2R51   OG2R50   CG2R57     9   180.000000    31.380000     2
  CG2R51   CG2R51   OG2R50   CG2RC0     9   180.000000    35.564000     2
  CG2R51   CG2R51   OG2R50   NG2R50     9   180.000000    35.564000     2
  CG2R51   CG2R51    OG311     HGP1     9   180.000000     0.943074     1
  CG2R51   CG2R51    OG311     HGP1     9   180.000000     0.000000     2
  CG2R51   CG2R51   OG3C51   CG2R53     9   180.000000     5.150504     2
  CG2R51   CG2R51   OG3C51   CG2R53     9   180.000000     9.598096     3
  CG2R51   CG2R51   OG3C51   CG3C50     9   180.000000    18.158560     2
  CG2R51   CG2R51   OG3C51   CG3C51     9   180.000000    18.158560     2
  CG2R51   CG2R51   OG3C51   CG3C52     9   180.000000    18.158560     2
  CG2R51   CG2R51   OG3C51   NG3C51     9   180.000000    31.444434     2
  CG2R51   CG2R51   OG3R60    CG321     9     0.000000     0.083680     2
  CG2R51   CG2R51   OG3R60    CG321     9   180.000000     0.753120     4
  CG2R51   CG2R51   SG2R50   CG2R51     9   180.000000    35.564000     2
  CG2R51   CG2R51   SG2R50   CG2R53     9   180.000000    35.564000     2
  CG2R51   CG2R51   SG2R50   CG2R57     9   180.000000    35.564000     2
  CG2R51   CG2R51   SG2R50   CG2RC0     9   180.000000    35.564000     2
  CG2R51   CG2R51   SG2R50   NG2R50     9   180.000000    37.656000     2
  CG2R51   CG2R51   SG2R50   NG2R51     9   180.000000    21.924160     2
  CG2R51   CG2R51   SG2R50   SG2R50     9   180.000000    22.886480     2
  CG2R51   CG2R51    SG311    NG2P1     9   180.000000     0.794960     1
  CG2R51   CG2R51    SG311    NG2P1     9     0.000000     0.000000     2
  CG2R51   CG2R51    SG3O1    OG2P1     9     0.000000     0.251040     1
  CG2R51   CG2R51    SG3O1    OG2P1     9   180.000000     0.376560     2
  CG2R51   CG2R51    SG3O1    OG2P1     9   180.000000     0.669440     3
  CG2R51   CG2R51    SG3O1    OG2P1     9   180.000000     0.209200     6
  CG2R51   CG2R51    SG3O2    CG321     9   180.000000     0.334720     1
  CG2R51   CG2R51    SG3O2    CG321     9   180.000000     6.024960     2
  CG2R51   CG2R51    SG3O2   CG3C52     9     0.000000     0.000000     1
  CG2R51   CG2R51    SG3O2   CG3C52     9     0.000000     0.000000     2
  CG2R51   CG2R51    SG3O2   NG2R53     9     0.000000     0.125520     2
  CG2R51   CG2R51    SG3O2   NG2R53     9     0.000000     0.418400     6
  CG2R51   CG2R51    SG3O2    NG301     9   180.000000    13.639840     1
  CG2R51   CG2R51    SG3O2    NG301     9   180.000000     1.004160     2
  CG2R51   CG2R51    SG3O2    NG311     9   180.000000    13.639840     1
  CG2R51   CG2R51    SG3O2    NG311     9   180.000000     1.004160     2
  CG2R51   CG2R51    SG3O2    NG321     9   180.000000    13.639840     1
  CG2R51   CG2R51    SG3O2    NG321     9   180.000000     1.004160     2
  CG2R51   CG2R51    SG3O2    OG2P1     9     0.000000     0.000000     6
  CG2R51   CG2R51      CT2      CT1     9     0.000000     7.280160     1
  CG2R51   CG2R51      CT2      CT1     9     0.000000     0.627600     2
  CG2R51   CG2R51      CT2      CT1     9   180.000000     3.221680     3
  CG2R51   CG2R51      CT3      CT1     9     0.000000     8.535360     1
  CG2R51   CG2R51      CT3      CT1     9     0.000000     1.840960     2
  CG2R51   CG2R51      CT3      CT1     9   180.000000     0.543920     3
  CG2R51   CG2R51      CT1        C     9     0.000000    11.842394     1
  CG2R51   CG2R51      CT1        C     9   180.000000     3.907019     2
  CG2R51   CG2R51      CT1      NH1     9     0.000000     3.643427     1
  CG2R51   CG2R51      CT1      NH1     9   180.000000     0.566932     2
  CG2R51   CG2R51     CTD1        C     9     0.000000    11.842394     1
  CG2R51   CG2R51     CTD1        C     9   180.000000     3.907019     2
  CG2R51   CG2R51     CTD1      NH1     9     0.000000     3.643427     1
  CG2R51   CG2R51     CTD1      NH1     9   180.000000     0.566932     2
  CG2R51   CG2R52   CG2R61   CG2R61     9   180.000000     3.179840     2
  CG2R51   CG2R52   CG2R61   CG2R61     9   180.000000     0.794960     4
  CG2R51   CG2R52   CG2R61   CG2R64     9   180.000000    14.100080     2
  CG2R51   CG2R52   CG2R61   CG2R64     9   180.000000     1.799120     4
  CG2R51   CG2R52   CG2R62   CG2R62     9   180.000000    19.874000     2
  CG2R51   CG2R52   CG2R62   CG2R62     9     0.000000     0.125520     4
  CG2R51   CG2R52   CG2R62   NG2R61     9   180.000000     2.217520     2
  CG2R51   CG2R52   CG2R62   NG2R61     9   180.000000     0.878640     4
  CG2R51   CG2R52    CG301    CG321     9     0.000000     4.393200     1
  CG2R51   CG2R52    CG301    CG321     9     0.000000     2.510400     2
  CG2R51   CG2R52    CG301    CG321     9   180.000000     1.757280     3
  CG2R51   CG2R52    CG301    CG324     9     0.000000     0.209200     1
  CG2R51   CG2R52    CG301    CG324     9   180.000000     1.171520     2
  CG2R51   CG2R52    CG301    CG324     9     0.000000     0.000000     3
  CG2R51   CG2R52    CG301    CG324     9   180.000000     0.711280     4
  CG2R51   CG2R52    CG301    CG331     9   180.000000     0.125520     1
  CG2R51   CG2R52    CG301    CG331     9     0.000000     2.845120     2
  CG2R51   CG2R52    CG301    CG331     9   180.000000     0.669440     3
  CG2R51   CG2R52    CG302     FGA3     9   180.000000     0.000000     2
  CG2R51   CG2R52    CG302     FGA3     9     0.000000     0.209200     6
  CG2R51   CG2R52    CG311    CG321     9     0.000000     0.836800     1
  CG2R51   CG2R52    CG311    CG321     9     0.000000     1.129680     2
  CG2R51   CG2R52    CG311    CG321     9     0.000000     0.000000     3
  CG2R51   CG2R52    CG311    NG321     9   180.000000     1.715440     2
  CG2R51   CG2R52    CG311    OG301     9   180.000000     0.000000     1
  CG2R51   CG2R52    CG311    OG301     9   180.000000     0.000000     2
  CG2R51   CG2R52    CG311    OG301     9     0.000000     0.000000     3
  CG2R51   CG2R52    CG311     HGA1     9     0.000000     0.000000     3
  CG2R51   CG2R52    CG312    CG321     9     0.000000     0.000000     1
  CG2R51   CG2R52    CG312    CG321     9     0.000000     0.000000     2
  CG2R51   CG2R52    CG312    CG321     9     0.000000     4.602400     3
  CG2R51   CG2R52    CG312     FGA2     9   180.000000     0.000000     2
  CG2R51   CG2R52    CG314    CG321     9     0.000000     0.836800     1
  CG2R51   CG2R52    CG314    CG321     9     0.000000     1.129680     2
  CG2R51   CG2R52    CG314    CG321     9     0.000000     0.000000     3
  CG2R51   CG2R52    CG314    NG3P3     9     0.000000     0.292880     1
  CG2R51   CG2R52    CG314    NG3P3     9     0.000000     0.000000     2
  CG2R51   CG2R52    CG314     HGA1     9     0.000000     0.000000     3
  CG2R51   CG2R52    CG321    CG314     9     0.000000     0.836800     1
  CG2R51   CG2R52    CG321    CG314     9     0.000000     1.129680     2
  CG2R51   CG2R52    CG321    CG314     9     0.000000     0.000000     3
  CG2R51   CG2R52    CG321    CG321     9     0.000000     0.836800     1
  CG2R51   CG2R52    CG321    CG321     9     0.000000     1.129680     2
  CG2R51   CG2R52    CG321    CG321     9     0.000000     0.000000     3
  CG2R51   CG2R52    CG321    CG324     9     0.000000     0.836800     1
  CG2R51   CG2R52    CG321    CG324     9     0.000000     1.129680     2
  CG2R51   CG2R52    CG321    CG324     9     0.000000     0.000000     3
  CG2R51   CG2R52    CG321    NG301     9     0.000000     0.836800     1
  CG2R51   CG2R52    CG321    NG301     9     0.000000     1.129680     2
  CG2R51   CG2R52    CG321    OG311     9     0.000000     0.543920     1
  CG2R51   CG2R52    CG321    OG311     9   180.000000     1.004160     2
  CG2R51   CG2R52    CG321    OG311     9   180.000000     0.251040     3
  CG2R51   CG2R52    CG321    SG311     9   180.000000     6.024960     1
  CG2R51   CG2R52    CG321    SG311     9   180.000000     0.502080     2
  CG2R51   CG2R52    CG321     HGA2     9     0.000000     0.000000     3
  CG2R51   CG2R52    CG331     HGA3     9     0.000000     0.000000     3
  CG2R51   CG2R52   CG3C31   CG3C31     9     0.000000     1.046000     1
  CG2R51   CG2R52   CG3C31   CG3C31     9   180.000000     4.184000     2
  CG2R51   CG2R52   CG3C31   CG3C31     9   180.000000     0.543920     3
  CG2R51   CG2R52   CG3C31   CG3C31     9   180.000000     0.878640     4
  CG2R51   CG2R52   CG3C31     HGA1     9     0.000000     0.000000     3
  CG2R51   CG2R52   CG3C52   CG3C52     9     0.000000     0.000000     2
  CG2R51   CG2R52   CG3C52   CG3C52     9   180.000000     1.757280     3
  CG2R51   CG2R52   CG3C52   CG3C52     9     0.000000     1.464400     6
  CG2R51   CG2R52   CG3C52   NG3C51     9   180.000000     2.928800     3
  CG2R51   CG2R52   CG3C52     HGA2     9     0.000000     0.000000     3
  CG2R51   CG2R52   NG2R50   CG3C52     9   180.000000    23.012000     2
  CG2R51   CG2R52   NG2R50   NG2R51     9   180.000000    50.208000     2
  CG2R51   CG2R52   NG2R50   NG2RC0     9   180.000000    50.208000     2
  CG2R51   CG2R52   NG2R50   OG2R50     9   180.000000    50.208000     2
  CG2R51   CG2R52   NG2R50   SG2R50     9   180.000000    35.564000     2
  CG2R51   CG2R52   NG2R52   CG3C54     9   180.000000    25.104000     2
  CG2R51   CG2R52   NG2R52     HGP2     9   180.000000    11.296800     2
  CG2R51   CG2R53   NG2R50   NG2R51     9     0.000000     0.000000     2
  CG2R51   CG2R53   NG2R51   CG2R51     9   180.000000     8.368000     2
  CG2R51   CG2R53   NG2R51   CG2R53     9   180.000000     8.368000     2
  CG2R51   CG2R53   NG2R51    CG301     9   180.000000     0.083680     2
  CG2R51   CG2R53   NG2R51    CG331     9   180.000000     0.000000     2
  CG2R51   CG2R53   NG2R51   SG2R50     9   180.000000     0.627600     1
  CG2R51   CG2R53   NG2R51   SG2R50     9   180.000000     3.723760     2
  CG2R51   CG2R53   NG2R52   CG2R51     9     0.000000     0.000000     2
  CG2R51   CG2R53   NG2R52   NG2R51     9   180.000000    29.999280     2
  CG2R51   CG2R53   NG2R52     HGP2     9     0.000000     1.631760     2
  CG2R51   CG2R53   NG2R53   CG3C52     9     0.000000    17.656480     1
  CG2R51   CG2R53   NG2R53   CG3C52     9     0.000000     2.468560     2
  CG2R51   CG2R53   NG2R53    SG3O2     9     0.000000     0.125520     1
  CG2R51   CG2R53   NG2R53    SG3O2     9   180.000000    11.506000     2
  CG2R51   CG2R53   NG2R53     HGP1     9   180.000000     7.112800     2
  CG2R51   CG2R53    NG2S1    CG2O1     9     0.000000     1.338880     2
  CG2R51   CG2R53    NG2S1     HGP1     9     0.000000     0.878640     2
  CG2R51   CG2R53   OG2R50   NG2R51     9   180.000000    38.283600     2
  CG2R51   CG2R53   OG3C51   CG2RC7     9   180.000000    13.681680     2
  CG2R51   CG2R53   OG3C51   CG2RC7     9     0.000000     0.000000     3
  CG2R51   CG2R53   OG3C51   CG3C50     9   180.000000     5.188160     2
  CG2R51   CG2R53   OG3C51   CG3C50     9   180.000000     9.497680     3
  CG2R51   CG2R53   OG3C51   CG3C51     9   180.000000     5.188160     2
  CG2R51   CG2R53   OG3C51   CG3C51     9   180.000000     9.497680     3
  CG2R51   CG2R53   OG3C51   CG3C52     9   180.000000     5.188160     2
  CG2R51   CG2R53   OG3C51   CG3C52     9   180.000000     9.497680     3
  CG2R51   CG2R53   SG2R50   SG2R50     9   180.000000    43.429920     2
  CG2R51   CG2R57   CG2R57   CG2R51     9   180.000000     1.882800     2
  CG2R51   CG2R57   CG2R57   CG2R51     9     0.000000     0.334720     4
  CG2R51   CG2R57   CG2R57   CG2RC0     9   180.000000     1.882800     2
  CG2R51   CG2R57   CG2R57   CG2RC0     9     0.000000     0.334720     4
  CG2R51   CG2R57   CG2R57   NG2R50     9   180.000000     1.589920     2
  CG2R51   CG2R57   CG2R57   NG2R50     9   180.000000     3.430880     3
  CG2R51   CG2R57   CG2R57   NG2R50     9   180.000000     0.292880     4
  CG2R51   CG2R57   CG2R57   NG2R51     9   180.000000     5.773920     2
  CG2R51   CG2R57   CG2R57   NG2R51     9     0.000000     2.970640     4
  CG2R51   CG2R57   CG2R57   NG2R51     9   180.000000     1.464400     6
  CG2R51   CG2R57   CG2R57   NG2R52     9   180.000000     0.000000     2
  CG2R51   CG2R57   CG2R57   NG2R52     9     0.000000     0.962320     4
  CG2R51   CG2R57   CG2R57   NG2R52     9   180.000000     0.502080     6
  CG2R51   CG2R57   CG2R57   NG2RC0     9   180.000000     8.911920     1
  CG2R51   CG2R57   CG2R57   NG2RC0     9   180.000000     9.706880     2
  CG2R51   CG2R57   CG2R57   NG2RC0     9   180.000000     5.313680     3
  CG2R51   CG2R57   CG2R57   NG3C51     9   180.000000     9.204800     2
  CG2R51   CG2R57   CG2R57   NG3C51     9     0.000000     1.882800     4
  CG2R51   CG2R57   CG2R57   OG2R50     9   180.000000     9.246640     2
  CG2R51   CG2R57   CG2R57   OG2R50     9     0.000000     0.418400     4
  CG2R51   CG2R57   CG2R57   SG2R50     9   180.000000     8.577200     2
  CG2R51   CG2R57   CG2R57   SG2R50     9   180.000000     0.292880     4
  CG2R51   CG2R57   CG2R57   SG2R50     9   180.000000     1.924640     6
  CG2R51   CG2R57   CG2RC0   CG2R61     9   180.000000     1.422560     2
  CG2R51   CG2R57   CG2RC0   CG2RC0     9   180.000000    20.920000     2
  CG2R51   CG2R57   CG3C51   CG3C52     9     0.000000     1.087840     3
  CG2R51   CG2R57   CG3C51   CG3C53     9     0.000000    22.928320     3
  CG2R51   CG2R57   CG3C51   NG3C51     9     0.000000     6.150480     3
  CG2R51   CG2R57   CG3C51   NG3C51     9     0.000000     4.811600     4
  CG2R51   CG2R57   CG3C51   OG3C51     9     0.000000     7.363840     2
  CG2R51   CG2R57   CG3C51   OG3C51     9   180.000000    19.539280     3
  CG2R51   CG2R57   CG3C51     HGA1     9     0.000000     0.000000     3
  CG2R51   CG2R57   CG3C52   CG2RC0     9   180.000000    17.321760     2
  CG2R51   CG2R57   CG3C52   CG2RC0     9   180.000000     5.564720     3
  CG2R51   CG2R57   CG3C52     HGA2     9     0.000000     0.000000     3
  CG2R51   CG2R57   CG3C53   CG3C52     9     0.000000     0.460240     3
  CG2R51   CG2R57   CG3C53    NG3P2     9     0.000000     0.292880     3
  CG2R51   CG2R57   CG3C53     HGA1     9     0.000000     0.000000     3
  CG2R51   CG2R57   CG3RC1   CG3C52     9     0.000000     0.167360     2
  CG2R51   CG2R57   CG3RC1   CG3C52     9     0.000000    10.376320     3
  CG2R51   CG2R57   CG3RC1    NG2S0     9     0.000000     0.209200     2
  CG2R51   CG2R57   CG3RC1     HGA1     9     0.000000     0.000000     3
  CG2R51   CG2R57   NG2R50   NG2R51     9   180.000000    23.806960     2
  CG2R51   CG2R57   NG2R51   CG2RC0     9   180.000000    21.296560     2
  CG2R51   CG2R57   NG2R51    CG331     9   180.000000    20.125040     2
  CG2R51   CG2R57   NG2R51   NG2R50     9   180.000000    25.187680     2
  CG2R51   CG2R57   NG2R51     HGP1     9   180.000000     2.343040     2
  CG2R51   CG2R57   NG2R52   CG2R53     9   180.000000    38.283600     2
  CG2R51   CG2R57   NG2R52    CG324     9   180.000000     2.092000     2
  CG2R51   CG2R57   NG2R52   CG3C54     9   180.000000    12.217280     2
  CG2R51   CG2R57   NG2R52     HGP2     9   180.000000    12.217280     2
  CG2R51   CG2R57   NG2R57   CG2R51     9   180.000000     1.338880     2
  CG2R51   CG2R57   NG2R57   CG2R51     9     0.000000     0.502080     4
  CG2R51   CG2R57   NG2R57   CG2R51     9     0.000000     0.062760     6
  CG2R51   CG2R57   NG2R57   CG2R53     9   180.000000     1.338880     2
  CG2R51   CG2R57   NG2R57   CG2R53     9     0.000000     0.502080     4
  CG2R51   CG2R57   NG2R57   CG2R53     9     0.000000     0.041840     6
  CG2R51   CG2R57   NG2R57   CG3C52     9   180.000000     4.393200     2
  CG2R51   CG2R57   NG2R57   CG3C52     9     0.000000     1.840960     4
  CG2R51   CG2R57   NG2R57   CG3C52     9   180.000000     1.213360     6
  CG2R51   CG2R57   NG2R57   NG2R50     9   180.000000     4.225840     2
  CG2R51   CG2R57   NG2R57   NG2R50     9     0.000000     0.460240     4
  CG2R51   CG2R57   NG2R57   NG2R50     9     0.000000     0.836800     6
  CG2R51   CG2R57   NG3C51    CG331     9   180.000000     7.740400     2
  CG2R51   CG2R57   NG3C51    CG331     9     0.000000     2.719600     4
  CG2R51   CG2R57   NG3C51   CG3C52     9     0.000000     2.008320     2
  CG2R51   CG2R57   OG2R50   CG2R51     9   180.000000    43.304400     2
  CG2R51   CG2R57   OG2R50   CG2R53     9   180.000000    39.245920     2
  CG2R51   CG2R57   OG2R50   CG2RC0     9   180.000000    23.263040     2
  CG2R51   CG2R57   SG2R50   CG2R51     9   180.000000    53.973600     2
  CG2R51   CG2R61   CG2R61   CG2R61     9   180.000000    12.552000     2
  CG2R51   CG2R61   CG2R61    CG321     9   180.000000     6.150480     2
  CG2R51   CG2R61   CG2R61    NG2S1     9   180.000000     2.175680     2
  CG2R51   CG2R61   CG2R61    NG311     9   180.000000     1.255200     2
  CG2R51   CG2R61   CG2R61    HGR61     9   180.000000     8.368000     2
  CG2R51   CG2R61   CG2R61    HGR62     9   180.000000     8.368000     2
  CG2R51   CG2R61   CG2R62   CG2R62     9   180.000000    12.552000     2
  CG2R51   CG2R61   CG2R62   OG3R60     9   180.000000    13.890880     2
  CG2R51   CG2R61   CG2R64   NG2R61     9   180.000000     4.476880     2
  CG2R51   CG2R61   CG2R64   NG2R62     9   180.000000    13.095920     2
  CG2R51   CG2R61   CG2R66   CG2R66     9   180.000000    12.552000     2
  CG2R51   CG2R61   CG2R66     FGR1     9   180.000000     6.317840     2
  CG2R51   CG2R61   NG2R60   CG2R61     9   180.000000    27.990960     2
  CG2R51   CG2R61   NG2R60   CG2R64     9   180.000000    21.171040     2
  CG2R51   CG2R61   NG2R62   CG2R63     9   180.000000    35.103760     2
  CG2R51   CG2R61   NG2R62   CG2R64     9   180.000000    18.367760     2
  CG2R51   CG2R62   CG2R62   CG2R62     9     0.000000     0.083680     2
  CG2R51   CG2R62   CG2R62   CG2R63     9   180.000000    17.154400     2
  CG2R51   CG2R62   CG2R62   NG2R61     9   180.000000    16.694160     2
  CG2R51   CG2R62   CG2R62    HGR62     9   180.000000     9.288480     2
  CG2R51   CG2R62   NG2R62   CG2R64     9   180.000000    12.510160     2
  CG2R51   CG2R64   NG2R61   CG2R63     9     0.000000     0.209200     2
  CG2R51   CG2R64   NG2R61    NG2S3     9   180.000000    14.267440     2
  CG2R51   CG2R64   NG2R62   CG2R62     9   180.000000    22.635440     2
  CG2R51   CG2RC0   CG2RC0   CG2R51     9   180.000000     0.000000     2
  CG2R51   CG2RC0   CG2RC0   CG2R61     9   180.000000     6.276000     2
  CG2R51   CG2RC0   CG2RC0   CG2R62     9   180.000000     6.276000     2
  CG2R51   CG2RC0   CG2RC0   CG2R63     9   180.000000     6.276000     2
  CG2R51   CG2RC0   CG2RC0   CG2R66     9   180.000000     6.276000     2
  CG2R51   CG2RC0   CG2RC0   CG2RC0     9     0.000000     0.041840     2
  CG2R51   CG2RC0   CG2RC0   CG3C50     9   180.000000    20.920000     2
  CG2R51   CG2RC0   CG2RC0   CG3C51     9   180.000000    20.920000     2
  CG2R51   CG2RC0   CG2RC0   CG3C52     9   180.000000    20.920000     2
  CG2R51   CG2RC0   CG2RC0   NG2R50     9   180.000000    14.016400     2
  CG2R51   CG2RC0   CG2RC0   NG2R51     9   180.000000    27.196000     2
  CG2R51   CG2RC0   CG2RC0   NG2R52     9   180.000000    13.346960     2
  CG2R51   CG2RC0   CG2RC0   NG2R61     9   180.000000     4.769760     2
  CG2R51   CG2RC0   CG2RC0   NG2R62     9   180.000000    14.644000     2
  CG2R51   CG2RC0   CG2RC0   OG2R50     9   180.000000    35.564000     2
  CG2R51   CG2RC0   CG2RC0   SG2R50     9   180.000000    35.564000     2
  CG2R51   CG2RC0   NG2R52   CG2R53     9   180.000000     8.116960     2
  CG2R51   CG2RC0   NG2R52   CG2R64     9   180.000000     7.154640     2
  CG2R51   CG2RC0   NG2R61   CG2R63     9   180.000000     4.518720     2
  CG2R51   CG2RC0   NG2R61     HGP1     9     0.000000     4.978960     2
  CG2R51   CG2RC0   NG2R62   CG2R64     9   180.000000    12.468320     2
  CG2R51   CG2RC0   NG2R62   NG2R62     9   180.000000    18.367760     2
  CG2R51   CG2RC0   NG2RC0   CG2R51     9   180.000000    33.472000     2
  CG2R51   CG2RC0   NG2RC0   CG2R53     9   180.000000    33.472000     2
  CG2R51   CG2RC0   NG2RC0   CG2R57     9   180.000000    33.472000     2
  CG2R51   CG2RC0   NG2RC0   CG2R61     9   180.000000     4.184000     2
  CG2R51   CG2RC0   NG2RC0   CG2R67     9   180.000000    16.652320     2
  CG2R51   CG2RC0   NG2RC0   NG2R50     9   180.000000    10.878400     2
  CG2R51   CG2RC0   NG2RC0   NG2R61     9     0.000000     0.418400     2
  CG2R51   CG2RC0   NG2RC0   NG2R62     9   180.000000    13.932720     2
  CG2R51   CG2RC7   CG2RC7   CG2R51     9   180.000000    12.552000     2
  CG2R51   CG2RC7   CG2RC7   CG2R71     9   180.000000     0.000000     2
  CG2R51   CG2RC7   CG2RC7   OG3C51     9   180.000000     7.614880     2
  CG2R51    CG301    CG311    CG321     9     0.000000     2.259360     3
  CG2R51    CG301    CG311    CG321     9     0.000000     2.259360     6
  CG2R51    CG301    CG311     HGA1     9     0.000000     0.000000     3
  CG2R51    CG301    CG321    CG311     9     0.000000     0.000000     2
  CG2R51    CG301    CG321    CG311     9   180.000000     7.238320     3
  CG2R51    CG301    CG321    CG321     9   180.000000     5.313680     2
  CG2R51    CG301    CG321    CG321     9   180.000000     1.129680     3
  CG2R51    CG301    CG321    CG324     9   180.000000     7.238320     3
  CG2R51    CG301    CG321     HGA2     9     0.000000     0.000000     3
  CG2R51    CG301    CG324    NG3P2     9     0.000000     0.418400     2
  CG2R51    CG301    CG324    NG3P2     9   180.000000     1.338880     3
  CG2R51    CG301    CG324     HGA2     9     0.000000     0.000000     3
  CG2R51    CG301    CG331     HGA3     9     0.000000     0.669440     3
  CG2R51    CG301    NG2S0    CG2O1     9   180.000000     1.171520     1
  CG2R51    CG301    NG2S0    CG2O1     9     0.000000     3.138000     2
  CG2R51    CG301    NG2S0    CG2O1     9   180.000000     0.460240     3
  CG2R51    CG301    NG2S0    CG2O1     9   180.000000     2.050160     4
  CG2R51    CG301    NG2S0    CG2O1     9     0.000000     3.389040     6
  CG2R51    CG301    NG2S0    CG321     9   180.000000     1.004160     1
  CG2R51    CG301    NG2S0    CG321     9   180.000000     1.799120     2
  CG2R51    CG301    NG2S0    CG321     9   180.000000     0.962320     4
  CG2R51    CG301    NG311    CG321     9     0.000000     5.606560     1
  CG2R51    CG301    NG311    CG321     9   180.000000    12.886720     2
  CG2R51    CG301    NG311    CG321     9     0.000000     4.435040     3
  CG2R51    CG301    NG311   HGPAM1     9     0.000000     2.133840     2
  CG2R51    CG301    NG311   HGPAM1     9     0.000000     6.108640     3
  CG2R51    CG301    NG321   HGPAM2     9     0.000000     3.138000     1
  CG2R51    CG301    NG321   HGPAM2     9     0.000000     0.418400     3
  CG2R51    CG301    OG311     HGP1     9     0.000000     5.104480     1
  CG2R51    CG301    OG311     HGP1     9     0.000000     2.468560     2
  CG2R51    CG301    OG311     HGP1     9     0.000000     2.510400     3
  CG2R51    CG311    CG314    CG321     9     0.000000     0.167360     3
  CG2R51    CG311    CG314    NG3P3     9     0.000000     0.836800     3
  CG2R51    CG311    CG314     HGA1     9     0.000000     0.836800     3
  CG2R51    CG311    CG321    CG2O1     9     0.000000     0.836800     3
  CG2R51    CG311    CG321    CG314     9     0.000000     0.167360     3
  CG2R51    CG311    CG321    CG321     9     0.000000     0.167360     3
  CG2R51    CG311    CG321    CG331     9     0.000000     0.167360     3
  CG2R51    CG311    CG321    NG2S1     9     0.000000     0.836800     3
  CG2R51    CG311    CG321    NG311     9     0.000000     0.167360     3
  CG2R51    CG311    CG321    SG311     9     0.000000     3.681920     1
  CG2R51    CG311    CG321    SG311     9   180.000000     0.627600     2
  CG2R51    CG311    CG321    SG311     9   180.000000     2.301200     3
  CG2R51    CG311    CG321    SG3O3     9     0.000000     0.000000     1
  CG2R51    CG311    CG321    SG3O3     9     0.000000     7.029120     2
  CG2R51    CG311    CG321    SG3O3     9   180.000000     4.895280     3
  CG2R51    CG311    CG321     HGA2     9     0.000000     0.836800     3
  CG2R51    CG311    CG324    NG2P1     9     0.000000     0.836800     3
  CG2R51    CG311    CG324    NG3P2     9     0.000000     0.836800     3
  CG2R51    CG311    CG324     HGA2     9     0.000000     0.836800     3
  CG2R51    CG311    CG331     HGA3     9     0.000000     0.669440     3
  CG2R51    CG311    NG2D1   CG2R64     9   180.000000     7.238320     1
  CG2R51    CG311    NG2D1   CG2R64     9   180.000000     1.297040     2
  CG2R51    CG311    NG2D1   CG2R64     9     0.000000     4.393200     3
  CG2R51    CG311    NG2D1   CG2R64     9   180.000000     0.502080     6
  CG2R51    CG311   NG2R53   CG2R53     9   180.000000     0.418400     1
  CG2R51    CG311   NG2R53   CG2R53     9   180.000000     0.251040     6
  CG2R51    CG311    NG2S0    CG2O6     9   180.000000     0.418400     1
  CG2R51    CG311    NG2S0    CG2O6     9   180.000000     0.209200     2
  CG2R51    CG311    NG2S0    CG2O6     9     0.000000     0.041840     3
  CG2R51    CG311    NG2S0    CG2O6     9   180.000000     0.669440     4
  CG2R51    CG311    NG2S0    CG2O6     9     0.000000     2.761440     6
  CG2R51    CG311    NG2S0    CG321     9   180.000000     1.840960     1
  CG2R51    CG311    NG2S0    CG321     9   180.000000     1.715440     2
  CG2R51    CG311    NG2S0    CG321     9   180.000000     0.502080     3
  CG2R51    CG311    NG2S0    CG321     9   180.000000     2.594080     4
  CG2R51    CG311    NG2S1    CG2O1     9     0.000000     1.966480     1
  CG2R51    CG311    NG2S1    CG2O1     9     0.000000     0.041840     2
  CG2R51    CG311    NG2S1    CG2O1     9   180.000000     0.000000     3
  CG2R51    CG311    NG2S1    CG2O1     9     0.000000     0.041840     4
  CG2R51    CG311    NG2S1    CG2O1     9     0.000000     1.213360     6
  CG2R51    CG311    NG2S1     HGP1     9     0.000000     6.443360     1
  CG2R51    CG311    NG301   CG2R62     9     0.000000     2.677760     1
  CG2R51    CG311    NG301   CG2R62     9   180.000000     1.338880     3
  CG2R51    CG311    NG301   CG2R62     9   180.000000     1.338880     6
  CG2R51    CG311    NG301    CG321     9   180.000000     5.941280     1
  CG2R51    CG311    NG301    CG321     9     0.000000     3.430880     2
  CG2R51    CG311    NG301    CG321     9     0.000000     4.267680     3
  CG2R51    CG311    NG301    CG331     9   180.000000     5.941280     1
  CG2R51    CG311    NG301    CG331     9     0.000000     3.430880     2
  CG2R51    CG311    NG301    CG331     9     0.000000     4.267680     3
  CG2R51    CG311    NG311    CG321     9   180.000000     5.941280     1
  CG2R51    CG311    NG311    CG321     9     0.000000     3.430880     2
  CG2R51    CG311    NG311    CG321     9     0.000000     4.267680     3
  CG2R51    CG311    NG311   HGPAM1     9   180.000000     4.184000     2
  CG2R51    CG311    NG311   HGPAM1     9     0.000000     3.347200     3
  CG2R51    CG311    NG321   HGPAM2     9     0.000000     2.426720     1
  CG2R51    CG311    NG321   HGPAM2     9     0.000000     2.970640     3
  CG2R51    CG311    OG301    NG301     9   180.000000    18.325920     1
  CG2R51    CG311    OG301    NG301     9   180.000000     5.773920     2
  CG2R51    CG311    OG301    NG301     9     0.000000     0.502080     3
  CG2R51    CG311    OG311     HGP1     9     0.000000     5.119961     1
  CG2R51    CG311    OG311     HGP1     9     0.000000     2.459355     2
  CG2R51    CG311    OG311     HGP1     9     0.000000     2.493246     3
  CG2R51    CG311   OG3C61    CG301     9   180.000000     1.757280     1
  CG2R51    CG311   OG3C61    CG301     9     0.000000     2.384880     2
  CG2R51    CG311   OG3C61    CG301     9     0.000000     0.000000     3
  CG2R51    CG311   OG3C61    CG301     9   180.000000     3.723760     4
  CG2R51    CG311   OG3C61    CG311     9     0.000000     1.129680     1
  CG2R51    CG311   OG3C61    CG311     9     0.000000     0.167360     2
  CG2R51    CG311   OG3C61    CG311     9   180.000000     0.292880     3
  CG2R51    CG311   OG3C61    CG311     9   180.000000     1.087840     4
  CG2R51    CG311    SG311    CG321     9   180.000000     0.460240     1
  CG2R51    CG311    SG311    CG321     9   180.000000     3.598240     3
  CG2R51    CG311    SG311    CG321     9   180.000000     4.978960     4
  CG2R51    CG311      CT1        C     9     0.000000     0.836800     3
  CG2R51    CG314    CG321    CG321     9     0.000000     0.167360     3
  CG2R51    CG314    CG321     HGA2     9     0.000000     0.836800     3
  CG2R51    CG314    CG331     HGA3     9     0.000000     0.669440     3
  CG2R51    CG314    NG3P1    CG324     9   180.000000     0.585760     1
  CG2R51    CG314    NG3P1    CG324     9     0.000000     1.087840     2
  CG2R51    CG314    NG3P1    CG324     9   180.000000     1.129680     3
  CG2R51    CG314    NG3P1    CG324     9     0.000000     0.083680     4
  CG2R51    CG314    NG3P1    CG334     9   180.000000     0.334720     1
  CG2R51    CG314    NG3P1    CG334     9     0.000000     0.083680     2
  CG2R51    CG314    NG3P1    CG334     9     0.000000     1.004160     3
  CG2R51    CG314    NG3P1     HGP2     9   180.000000     0.753120     3
  CG2R51    CG314    NG3P2    CG324     9   180.000000     2.301200     1
  CG2R51    CG314    NG3P2    CG324     9   180.000000     0.167360     2
  CG2R51    CG314    NG3P2    CG324     9     0.000000     1.673600     3
  CG2R51    CG314    NG3P2     HGP2     9     0.000000     0.418400     3
  CG2R51    CG314    NG3P3     HGP2     9     0.000000     0.003766     3
  CG2R51    CG321    CG321   CG2R61     9     0.000000     7.322000     3
  CG2R51    CG321    CG321    CG311     9     0.000000     0.167360     3
  CG2R51    CG321    CG321    CG321     9     0.000000     0.167360     3
  CG2R51    CG321    CG321    NG2S0     9     0.000000     0.836800     3
  CG2R51    CG321    CG321    NG2S1     9     0.000000     0.836800     3
  CG2R51    CG321    CG321    NG301     9     0.000000     0.167360     3
  CG2R51    CG321    CG321    NG311     9     0.000000     0.167360     3
  CG2R51    CG321    CG321    SG311     9   180.000000     0.000000     1
  CG2R51    CG321    CG321    SG311     9   180.000000     0.000000     2
  CG2R51    CG321    CG321    SG311     9   180.000000     0.000000     3
  CG2R51    CG321    CG321    SG3O2     9   180.000000     2.301200     1
  CG2R51    CG321    CG321    SG3O2     9   180.000000     9.079280     2
  CG2R51    CG321    CG321    SG3O2     9   180.000000     3.347200     3
  CG2R51    CG321    CG321     HGA2     9     0.000000     0.836800     3
  CG2R51    CG321    CG324    NG3P1     9     0.000000     0.836800     3
  CG2R51    CG321    CG324    NG3P2     9     0.000000     0.836800     3
  CG2R51    CG321    CG324     HGA2     9     0.000000     0.836800     3
  CG2R51    CG321    CG331     HGA3     9     0.000000     0.669440     3
  CG2R51    CG321    NG2S0    CG2O1     9   180.000000    11.087600     1
  CG2R51    CG321    NG2S0    CG2O1     9     0.000000    13.723520     2
  CG2R51    CG321    NG2S0    CG2O1     9     0.000000     3.305360     3
  CG2R51    CG321    NG2S0    CG2O1     9     0.000000     4.267680     4
  CG2R51    CG321    NG2S0    CG2O1     9   180.000000     1.213360     6
  CG2R51    CG321    NG2S0    CG321     9   180.000000     5.439200     1
  CG2R51    CG321    NG2S0    CG321     9     0.000000     3.221680     4
  CG2R51    CG321    NG2S1    CG2O1     9     0.000000     1.966480     1
  CG2R51    CG321    NG2S1    CG2O1     9     0.000000     0.041840     2
  CG2R51    CG321    NG2S1    CG2O1     9   180.000000     0.000000     3
  CG2R51    CG321    NG2S1    CG2O1     9     0.000000     0.041840     4
  CG2R51    CG321    NG2S1    CG2O1     9     0.000000     1.213360     6
  CG2R51    CG321    NG2S1     HGP1     9     0.000000     0.000000     1
  CG2R51    CG321    NG301   CG2R61     9     0.000000     0.418400     1
  CG2R51    CG321    NG301   CG2R61     9     0.000000     1.924640     3
  CG2R51    CG321    NG301   CG2R61     9     0.000000     0.418400     4
  CG2R51    CG321    NG301   CG2R62     9     0.000000     0.585760     1
  CG2R51    CG321    NG301   CG2R62     9   180.000000     7.238320     2
  CG2R51    CG321    NG301   CG2R62     9     0.000000     0.920480     3
  CG2R51    CG321    NG301    CG311     9   180.000000     5.941280     1
  CG2R51    CG321    NG301    CG311     9     0.000000     3.430880     2
  CG2R51    CG321    NG301    CG311     9     0.000000     4.267680     3
  CG2R51    CG321    NG301    CG321     9   180.000000     5.941280     1
  CG2R51    CG321    NG301    CG321     9     0.000000     3.430880     2
  CG2R51    CG321    NG301    CG321     9     0.000000     4.267680     3
  CG2R51    CG321    NG301    CG331     9   180.000000     5.941280     1
  CG2R51    CG321    NG301    CG331     9     0.000000     3.430880     2
  CG2R51    CG321    NG301    CG331     9     0.000000     4.267680     3
  CG2R51    CG321    NG301    SG3O2     9     0.000000     0.418400     1
  CG2R51    CG321    NG301    SG3O2     9     0.000000     2.928800     2
  CG2R51    CG321    NG301    SG3O2     9     0.000000     0.418400     3
  CG2R51    CG321    NG311    CG321     9   180.000000     5.941280     1
  CG2R51    CG321    NG311    CG321     9     0.000000     3.430880     2
  CG2R51    CG321    NG311    CG321     9     0.000000     4.267680     3
  CG2R51    CG321    NG311   CG3C51     9   180.000000    12.552000     1
  CG2R51    CG321    NG311   HGPAM1     9   180.000000     4.184000     2
  CG2R51    CG321    NG311   HGPAM1     9     0.000000     3.347200     3
  CG2R51    CG321    NG321   HGPAM2     9     0.000000     2.426720     1
  CG2R51    CG321    NG321   HGPAM2     9     0.000000     2.970640     3
  CG2R51    CG321    OG311     HGP1     9     0.000000     5.104480     1
  CG2R51    CG321    OG311     HGP1     9     0.000000     2.468560     2
  CG2R51    CG321    OG311     HGP1     9     0.000000     2.510400     3
  CG2R51    CG321    SG301    SG301     9   180.000000     2.473162     1
  CG2R51    CG321    SG301    SG301     9     0.000000     0.733874     2
  CG2R51    CG321    SG301    SG301     9     0.000000     3.893630     3
  CG2R51    CG321    SG311    CG321     9   180.000000     4.560560     1
  CG2R51    CG321    SG311    CG321     9     0.000000     3.138000     3
  CG2R51    CG321    SG3O2    CG321     9     0.000000     2.426720     1
  CG2R51    CG321    SG3O2    CG321     9     0.000000     2.426720     2
  CG2R51    CG321    SG3O2    CG321     9   180.000000     1.464400     3
  CG2R51    CG321    SG3O2    CG321     9   180.000000     0.000000     4
  CG2R51    CG321    SG3O2    OG2P1     9     0.000000     0.627600     3
  CG2R51    CG321      CT1        C     9     0.000000     0.836800     3
  CG2R51    CG321     CTD1        C     9     0.000000     0.836800     3
  CG2R51    CG324    NG3P1    CG314     9   180.000000     7.112800     1
  CG2R51    CG324    NG3P1    CG314     9   180.000000     3.347200     2
  CG2R51    CG324    NG3P1    CG314     9     0.000000     2.426720     3
  CG2R51    CG324    NG3P1    CG324     9   180.000000     7.112800     1
  CG2R51    CG324    NG3P1    CG324     9   180.000000     3.347200     2
  CG2R51    CG324    NG3P1    CG324     9     0.000000     2.426720     3
  CG2R51    CG324    NG3P1    CG334     9   180.000000     5.815760     1
  CG2R51    CG324    NG3P1    CG334     9     0.000000     0.209200     2
  CG2R51    CG324    NG3P1    CG334     9     0.000000     5.020800     3
  CG2R51    CG324    NG3P1     HGP2     9     0.000000     0.167360     3
  CG2R51    CG324    NG3P2    CG314     9   180.000000     7.531200     1
  CG2R51    CG324    NG3P2    CG314     9   180.000000     2.092000     2
  CG2R51    CG324    NG3P2    CG314     9     0.000000     0.418400     3
  CG2R51    CG324    NG3P2    CG324     9   180.000000     7.531200     1
  CG2R51    CG324    NG3P2    CG324     9   180.000000     2.092000     2
  CG2R51    CG324    NG3P2    CG324     9     0.000000     0.418400     3
  CG2R51    CG324    NG3P2   CG3C53     9   180.000000     7.531200     1
  CG2R51    CG324    NG3P2   CG3C53     9   180.000000     2.092000     2
  CG2R51    CG324    NG3P2   CG3C53     9     0.000000     0.418400     3
  CG2R51    CG324    NG3P2     HGP2     9     0.000000     0.418400     3
  CG2R51    CG324    NG3P3     HGP2     9     0.000000     3.347200     3
  CG2R51   CG3C31   CG3C31   CG3C31     9   180.000000    13.012240     3
  CG2R51   CG3C31   CG3C31   CG3C31     9   180.000000     0.334720     6
  CG2R51   CG3C31   CG3C31    NG3P3     9     0.000000     1.129680     4
  CG2R51   CG3C31   CG3C31    NG3P3     9     0.000000     0.585760     6
  CG2R51   CG3C31   CG3C31     HGA1     9   180.000000     0.000000     5
  CG2R51   CG3C31   CG3C31     HGA2     9   180.000000     0.000000     5
  CG2R51   CG3C41   CG3C41   CG3C41     9   180.000000     0.292880     2
  CG2R51   CG3C41   CG3C41   CG3C41     9   180.000000    10.460000     3
  CG2R51   CG3C41   CG3C41     HGA2     9     0.000000     0.000000     3
  CG2R51   CG3C41    NG3P1    CG324     9     0.000000     7.740400     1
  CG2R51   CG3C41    NG3P1    CG324     9   180.000000     1.213360     3
  CG2R51   CG3C41    NG3P1    CG334     9   180.000000     1.087840     1
  CG2R51   CG3C41    NG3P1    CG334     9   180.000000     0.167360     3
  CG2R51   CG3C41    NG3P1     HGP2     9   180.000000    10.585520     2
  CG2R51   CG3C41    NG3P1     HGP2     9   180.000000     4.058480     3
  CG2R51   CG3C50   CG3C50   CG2R51     9   180.000000     5.271840     3
  CG2R51   CG3C50   CG3C50    OG311     9   180.000000     0.292880     3
  CG2R51   CG3C50   CG3C50   OG3C51     9   180.000000     2.008320     3
  CG2R51   CG3C50   CG3C52   CG3C52     9   180.000000     1.422560     3
  CG2R51   CG3C50   CG3C52     HGA2     9     0.000000     0.585760     3
  CG2R51   CG3C50   NG3C51   CG2R64     9   180.000000    10.794720     2
  CG2R51   CG3C50   NG3C51   CG2R64     9     0.000000     0.167360     3
  CG2R51   CG3C50   NG3C51   CG3C50     9     0.000000     5.716181     3
  CG2R51   CG3C50   NG3C51   CG3C52     9     0.000000     5.732080     3
  CG2R51   CG3C50   NG3C51    OG312     9   180.000000    15.152774     3
  CG2R51   CG3C50   NG3C51    SG3O2     9     0.000000     1.129680     3
  CG2R51   CG3C50   NG3C51    SG3O2     9     0.000000     4.016640     6
  CG2R51   CG3C50    OG311     HGP1     9     0.000000     0.627600     1
  CG2R51   CG3C50    OG311     HGP1     9     0.000000     4.602400     2
  CG2R51   CG3C50    OG311     HGP1     9     0.000000     2.719600     3
  CG2R51   CG3C50   OG3C51   CG2R53     9     0.000000     1.422560     1
  CG2R51   CG3C50   OG3C51   CG2R53     9     0.000000     1.046000     2
  CG2R51   CG3C50   OG3C51   CG2R53     9     0.000000     3.849280     6
  CG2R51   CG3C50   OG3C51   CG3C50     9   180.000000     2.803280     2
  CG2R51   CG3C50   OG3C51   CG3C50     9     0.000000     6.443360     3
  CG2R51   CG3C51   CG3C51   CG3C51     9   180.000000     1.422560     3
  CG2R51   CG3C51   CG3C51   CG3C52     9   180.000000     1.422560     3
  CG2R51   CG3C51   CG3C51   CG3C53     9   180.000000     1.422560     3
  CG2R51   CG3C51   CG3C51    OG301     9     0.000000     0.585760     3
  CG2R51   CG3C51   CG3C51    OG311     9     0.000000     0.585760     3
  CG2R51   CG3C51   CG3C51     HGA1     9     0.000000     0.794960     3
  CG2R51   CG3C51   CG3C52   CG3C52     9   180.000000     1.422560     3
  CG2R51   CG3C51   CG3C52   CG3C53     9   180.000000     1.422560     3
  CG2R51   CG3C51   CG3C52    SG3O2     9   180.000000    32.384160     2
  CG2R51   CG3C51   CG3C52    SG3O2     9   180.000000     1.422560     3
  CG2R51   CG3C51   CG3C52     HGA2     9     0.000000     0.585760     3
  CG2R51   CG3C51    NG2S0    CG2O1     9     0.000000     0.021757     3
  CG2R51   CG3C51    NG2S0   CG3C52     9     0.000000     7.313214     3
  CG2R51   CG3C51    NG2S0        C     9     0.000000     0.021757     3
  CG2R51   CG3C51    NG311    CG321     9   180.000000     8.368000     1
  CG2R51   CG3C51    NG311    CG321     9     0.000000     2.928800     3
  CG2R51   CG3C51    NG311   HGPAM1     9     0.000000     0.836800     2
  CG2R51   CG3C51   NG3C51   OG3C51     9   180.000000     8.495612     3
  CG2R51   CG3C51   NG3C51     HGP1     9   180.000000     7.405680     1
  CG2R51   CG3C51   NG3C51     HGP1     9     0.000000     2.928800     3
  CG2R51   CG3C51    OG301    CG331     9     0.000000     0.460240     1
  CG2R51   CG3C51    OG301    CG331     9   180.000000     7.656720     2
  CG2R51   CG3C51    OG301    CG331     9     0.000000     1.799120     3
  CG2R51   CG3C51    OG311     HGP1     9     0.000000     0.627600     1
  CG2R51   CG3C51    OG311     HGP1     9     0.000000     4.602400     2
  CG2R51   CG3C51    OG311     HGP1     9     0.000000     2.719600     3
  CG2R51   CG3C51   OG3C51   CG2R53     9   180.000000     1.297040     1
  CG2R51   CG3C51   OG3C51   CG2R53     9     0.000000     1.171520     6
  CG2R51   CG3C51    SG311    CG321     9   180.000000     4.140905     1
  CG2R51   CG3C51    SG311    CG321     9     0.000000     1.644730     3
  CG2R51   CG3C51    SG3O1    OG2P1     9   180.000000     2.426720     3
  CG2R51   CG3C51    CG2O1        N     9     0.000000     0.000000     1
  CG2R51   CG3C52   CG3C52   CG3C51     9   180.000000     1.422560     3
  CG2R51   CG3C52   CG3C52   CG3C52     9   180.000000    15.480800     3
  CG2R51   CG3C52   CG3C52   CG3C52     9     0.000000     9.414000     4
  CG2R51   CG3C52   CG3C52   CG3C52     9   180.000000     0.962320     6
  CG2R51   CG3C52   CG3C52   CG3C53     9   180.000000     1.422560     3
  CG2R51   CG3C52   CG3C52   NG3C51     9     0.000000     7.112800     3
  CG2R51   CG3C52   CG3C52   OG3C51     9   180.000000     1.046000     3
  CG2R51   CG3C52   CG3C52     HGA2     9     0.000000     0.585760     3
  CG2R51   CG3C52   CG3C54    NG3P1     9   180.000000     2.510400     3
  CG2R51   CG3C52   CG3C54    NG3P2     9   180.000000     2.510400     3
  CG2R51   CG3C52   CG3C54     HGA2     9     0.000000     0.585760     3
  CG2R51   CG3C52   NG2R50   CG2R52     9   180.000000     8.368000     2
  CG2R51   CG3C52   NG2R53   CG2R53     9     0.000000     2.677760     2
  CG2R51   CG3C52   NG2R53   CG2R53     9     0.000000     4.644240     3
  CG2R51   CG3C52   NG2R53     HGP1     9   180.000000     1.715440     2
  CG2R51   CG3C52   NG2R53     HGP1     9   180.000000     0.711280     3
  CG2R51   CG3C52    NG2S0    CG2O1     9     0.000000     0.031798     3
  CG2R51   CG3C52    NG2S0   CG3C51     9     0.000000     0.418400     3
  CG2R51   CG3C52    NG2S0        C     9     0.000000     0.031798     3
  CG2R51   CG3C52   NG3C51   CG2R64     9   180.000000    10.083440     2
  CG2R51   CG3C52   NG3C51   CG2R64     9   180.000000     5.188160     3
  CG2R51   CG3C52   NG3C51    CG331     9   180.000000     1.506240     3
  CG2R51   CG3C52   NG3C51    CG331     9   180.000000     1.715440     6
  CG2R51   CG3C52   NG3C51   CG3C50     9   180.000000     8.577200     3
  CG2R51   CG3C52   NG3C51   CG3C52     9   180.000000     8.577200     3
  CG2R51   CG3C52   NG3C51    NG3P2     9     0.000000     2.217520     3
  CG2R51   CG3C52   NG3C51    NG3P2     9     0.000000     4.225840     6
  CG2R51   CG3C52   NG3C51    OG312     9   180.000000    15.152774     3
  CG2R51   CG3C52   NG3C51   OG3C51     9   180.000000    33.799189     3
  CG2R51   CG3C52   NG3C51    SG3O2     9     0.000000     0.585760     3
  CG2R51   CG3C52   NG3C51    SG3O2     9   180.000000    11.422320     6
  CG2R51   CG3C52   NG3C51     HGP1     9   180.000000     7.405680     1
  CG2R51   CG3C52   NG3C51     HGP1     9     0.000000     2.928800     3
  CG2R51   CG3C52   OG3C51   CG2R53     9   180.000000     1.297040     1
  CG2R51   CG3C52   OG3C51   CG2R53     9     0.000000     1.171520     6
  CG2R51   CG3C52   OG3C51   CG3C52     9     0.000000     4.435040     2
  CG2R51   CG3C52   OG3C51   CG3C52     9   180.000000     1.087840     3
  CG2R51   CG3C52    SG311   CG3C52     9     0.000000     0.000000     1
  CG2R51   CG3C52    SG311   CG3C52     9     0.000000     0.000000     2
  CG2R51   CG3C52    SG311   CG3C52     9     0.000000     6.903600     3
  CG2R51   CG3C52    SG3O2   CG3C52     9   180.000000     0.041840     1
  CG2R51   CG3C52    SG3O2   CG3C52     9     0.000000     0.000000     2
  CG2R51   CG3C52    SG3O2   CG3C52     9     0.000000     2.719600     3
  CG2R51   CG3C52    SG3O2    OG2P1     9     0.000000    10.501840     2
  CG2R51   CG3C52    SG3O2    OG2P1     9   180.000000     0.962320     3
  CG2R51   CG3C52    SG3O3   CG2R52     9   180.000000     1.255200     2
  CG2R51   CG3C52    SG3O3   CG2R52     9   180.000000    10.083440     3
  CG2R51   CG3C52    SG3O3   CG3RC1     9     0.000000     0.209200     1
  CG2R51   CG3C52    SG3O3   CG3RC1     9     0.000000     0.041840     2
  CG2R51   CG3C52    SG3O3   CG3RC1     9     0.000000     0.585760     3
  CG2R51   CG3C52    SG3O3    OG2P1     9     0.000000     9.706880     2
  CG2R51   CG3C52    SG3O3    OG2P1     9   180.000000     0.962320     3
  CG2R51   CG3C53    NG3P2    CG324     9   180.000000     5.020800     1
  CG2R51   CG3C53    NG3P2    CG324     9     0.000000     2.719600     3
  CG2R51   CG3C53    NG3P2     HGP2     9     0.000000     0.418400     3
  CG2R51   CG3C53    NG3P3     HGP2     9     0.000000     1.255200     3
  CG2R51   CG3C54   NG2R52   CG2R52     9   180.000000    11.715200     2
  CG2R51   CG3C54   NG2R52   CG2R62     9     0.000000     4.560560     2
  CG2R51   CG3C54   NG2R52   CG3C54     9     0.000000     4.309520     2
  CG2R51   CG3C54   NG2R52     HGP2     9   180.000000    11.296800     2
  CG2R51   CG3C54    NG3P2   CG3C54     9   180.000000     7.865920     3
  CG2R51   CG3C54    NG3P2     HGP2     9     0.000000     1.255200     3
  CG2R51   CG3RC1    SG3O3   CG2R52     9     0.000000    14.560320     2
  CG2R51   CG3RC1    SG3O3   CG2R52     9     0.000000     2.970640     3
  CG2R51   CG3RC1    SG3O3   CG3C52     9   180.000000     0.000000     1
  CG2R51   CG3RC1    SG3O3   CG3C52     9     0.000000     0.000000     2
  CG2R51   CG3RC1    SG3O3   CG3C52     9     0.000000     0.000000     3
  CG2R51   CG3RC1    SG3O3   NG3C51     9     0.000000     0.000000     1
  CG2R51   CG3RC1    SG3O3   NG3C51     9     0.000000     0.000000     2
  CG2R51   CG3RC1    SG3O3   NG3C51     9     0.000000     5.062640     3
  CG2R51   CG3RC1    SG3O3    OG2P1     9     0.000000     1.548080     2
  CG2R51   CG3RC1    SG3O3    OG2P1     9   180.000000     4.435040     3
  CG2R51   NG2R50   NG2R50   NG2R50     9   180.000000    58.576000     2
  CG2R51   NG2R50   NG2R50   NG2R51     9   180.000000    58.576000     2
  CG2R51   NG2R50   NG2R50   OG2R50     9   180.000000    58.576000     2
  CG2R51   NG2R50   NG2R50   SG2R50     9   180.000000    69.579920     2
  CG2R51   NG2R50      CT2      CT2     9   180.000000     2.217520     1
  CG2R51   NG2R50      CT2      CT2     9   180.000000     1.757280     2
  CG2R51   NG2R50      CT2      CT2     9   180.000000     1.255200     3
  CG2R51   NG2R50      CT2      HA2     9     0.000000     0.000000     3
  CG2R51   NG2R51   NG2R52   CG2R51     9   180.000000     8.870080     2
  CG2R51   NG2R51   NG2R52   CG2R53     9   180.000000    47.028160     2
  CG2R51   NG2R51    NG3N1     HGP1     9     0.000000     4.560560     1
  CG2R51   NG2R51    NG3N1     HGP1     9     0.000000     6.527040     2
  CG2R51   NG2R51    NG3N1     HGP1     9     0.000000     1.171520     3
  CG2R51   NG2R51    NG3N1     HGP1     9   180.000000     0.753120     6
  CG2R51   NG2R51   OG2R50   CG2R53     9   180.000000     4.727920     2
  CG2R51   NG2R51    OG301    OG311     9     0.000000     1.551009     1
  CG2R51   NG2R51    OG301    OG311     9     0.000000     0.015062     2
  CG2R51   NG2R51    OG301    OG311     9     0.000000     3.215404     3
  CG2R51   NG2R51    OG301    OG311     9     0.000000     1.110434     4
  CG2R51   NG2R51    OG311     HGP1     9     0.000000     1.464400     1
  CG2R51   NG2R51    OG311     HGP1     9     0.000000     1.297040     2
  CG2R51   NG2R51    OG311     HGP1     9   180.000000     1.129680     3
  CG2R51   NG2R51    OG311     HGP1     9   180.000000     0.125520     4
  CG2R51   NG2R51      PG2    OG2P1     9     0.000000     0.287441     3
  CG2R51   NG2R51      PG2    OG2P1     9     0.000000     2.464794     4
  CG2R51   NG2R51     CN7B     CN7B     9   180.000000     0.000000     3
  CG2R51   NG2R51     CN7B     ON6B     9     0.000000     4.602400     1
  CG2R51   NG2R51     CN7B      HN7     9   180.000000     1.046000     2
  CG2R51   NG2R51     CN7B      HN7     9     0.000000     0.815880     3
  CG2R51   NG2R52    NG3N1     HGP1     9     0.000000     3.472720     1
  CG2R51   NG2R52    NG3N1     HGP1     9   180.000000     0.836800     3
  CG2R51   NG2R52    NG3N1     HGP1     9   180.000000     0.460240     6
  CG2R51   NG2R52    OG311     HGP1     9   180.000000     6.359680     1
  CG2R51   NG2R52    OG311     HGP1     9     0.000000     7.196480     2
  CG2R51   NG2R52    OG311     HGP1     9   180.000000     3.974800     3
  CG2R51   NG2R57   NG2R57   CG2R51     9     0.000000     1.255200     2
  CG2R51   NG3C51    SG3O3   CG2R52     9     0.000000     0.627600     1
  CG2R51   NG3C51    SG3O3   CG2R52     9   180.000000     1.422560     2
  CG2R51   NG3C51    SG3O3   CG3RC1     9     0.000000     0.041840     2
  CG2R51   NG3C51    SG3O3   CG3RC1     9     0.000000     7.447520     3
  CG2R51   NG3C51    SG3O3    OG2P1     9   180.000000     2.426720     2
  CG2R51   NG3C51    SG3O3    OG2P1     9     0.000000    12.886720     3
  CG2R51   SG2R50   SG2R50   CG2R53     9     0.000000     0.000000     1
  CG2R51   SG2R50   SG2R50   CG2R53     9   180.000000     8.786400     2
  CG2R51   SG2R50   SG2R50   CG2R53     9   180.000000    16.150240     3
  CG2R51      CT2      CT1      NH1     9     0.000000     0.000000     1
  CG2R51      CT2      CT1      NH1     9   180.000000     0.000000     2
  CG2R51      CT2      CT1      NH1     9     0.000000     3.765600     3
  CG2R51      CT1      NH1        C     9     0.000000     0.062760     1
  CG2R51      CT1      NH1        C     9     0.000000     1.246832     2
  CG2R51      CT1      NH1        C     9   180.000000     0.317984     3
  CG2R51      CT1      NH1        C     9     0.000000     2.589896     4
  CG2R51      CT1      NH1        C     9     0.000000     0.619232     6
  CG2R51      CT1        C        N     9   180.000000    11.506000     2
  CG2R51      CT1        C        N     9     0.000000     1.255200     4
  CG2R51     CTD1      NH1        C     9     0.000000     0.062760     1
  CG2R51     CTD1      NH1        C     9     0.000000     1.246832     2
  CG2R51     CTD1      NH1        C     9   180.000000     0.317984     3
  CG2R51     CTD1      NH1        C     9     0.000000     2.589896     4
  CG2R51     CTD1      NH1        C     9     0.000000     0.619232     6
   NG2O1   CG2D1O   CG2D1O    NG311     9   180.000000    23.053840     2
   NG2O1   CG2D1O   CG2D1O     HGA4     9     0.000000     0.000000     2
   NG2O1   CG2D1O   CG2DC2    NG2D1     9   180.000000     7.447520     2
   NG2O1   CG2D1O   CG2DC2     HGA4     9   180.000000     4.811600     2
   NG2O1   CG2D1O   CG2DC2     HGA4     9   180.000000     0.711280     3
   NG2O1   CG2D2O   CG2D2O    NG311     9   180.000000    23.053840     2
   NG2O1   CG2D2O   CG2D2O     HGA4     9     0.000000     0.000000     2
   NG2O1   CG2D2O   CG2DC1    NG2D1     9   180.000000     7.447520     2
   NG2O1   CG2D2O   CG2DC1     HGA4     9   180.000000     4.811600     2
   NG2O1   CG2D2O   CG2DC1     HGA4     9   180.000000     0.711280     3
   NG2O1   CG2R51   CG2R51    HGR51     9     0.000000     0.000000     2
   NG2O1   CG2R51   OG2R50   CG2RC0     9   180.000000    18.786160     2
   NG2O1   CG2R53   CG2RC0   CG2R61     9     0.000000     0.000000     2
   NG2O1   CG2R53   CG2RC0   CG2RC0     9     0.000000     0.000000     2
   NG2O1   CG2R53   NG2R50   NG2R51     9   180.000000    30.543200     2
   NG2O1   CG2R61   CG2R61    NG2S1     9   180.000000     8.911920     2
   NG2O1   CG2R61   CG2R61    NG2S3     9   180.000000     5.230000     2
   NG2O1   CG2R61   CG2R61    OG311     9   180.000000     6.629966     2
   NG2O1   CG2R61   CG2R61    HGR61     9   180.000000     4.184000     2
   NG2O1   CG2R61   CG2R61    HGR62     9   180.000000     4.184000     2
   NG2O1   CG2R61   CG2R61      CT1     9   180.000000    12.753669     2
   NG2O1   CG2R61   CG2R64    NG2D1     9   180.000000    10.418160     2
   NG2O1   CG2R61   CG2R64   NG2R61     9     0.000000     0.000000     2
   NG2O1   CG2R61   CG2R66   NG2R60     9   180.000000    17.405440     2
   NG2O1   CG2R61   CG2R66     FGR1     9   180.000000     9.916080     2
   NG2O1   CG2R61   CG2RC0   CG2R51     9     0.000000     0.753120     2
   NG2O1   CG2R61   CG2RC0   CG2R52     9     0.000000     3.640080     2
   NG2O1   CG2R61   CG2RC0   CG2RC0     9   180.000000    20.752640     2
   NG2O1   CG2R61   CG2RC0   NG2R51     9     0.000000     7.238320     2
   NG2O1   CG2R61   CG2RC0   NG3C51     9     0.000000     1.548080     2
   NG2O1   CG2R62   CG2R62    OG312     9   180.000000    20.836320     2
   NG2O1   CG2R62   CG2R63   NG2R61     9   180.000000    11.798880     2
   NG2O1   CG2R62   CG2R63    OG2D4     9   180.000000     6.694400     2
   NG2O1   CG2R62   NG2R61   CG2R62     9     0.000000     0.251040     2
   NG2O1   CG2R62   NG2R61    NG2D1     9   180.000000     4.560560     2
   NG2O1   CG2R64   NG2R60   CG2R61     9   180.000000    21.966000     2
   NG2O1    CG301    CG321    CG324     9     0.000000     0.000000     2
   NG2O1    CG301    CG321    CG324     9   180.000000     5.648400     3
   NG2O1    CG301    CG321     HGA2     9     0.000000     0.000000     3
   NG2O1    CG311    CG321    CG321     9   180.000000     3.681920     1
   NG2O1    CG311    CG321    CG321     9     0.000000     1.004160     2
   NG2O1    CG311    CG321    CG321     9   180.000000     0.627600     3
   NG2O1    CG311    CG321     HGA2     9     0.000000     0.836800     3
   NG301   CG2D1O   CG2D1O    NG321     9   180.000000    21.045520     2
   NG301   CG2D1O   CG2DC1   CG2DC2     9   180.000000     2.845120     2
   NG301   CG2D1O   CG2DC1    CG2O1     9   180.000000    10.460000     2
   NG301   CG2D1O   CG2DC1    CG321     9   180.000000    10.460000     2
   NG301   CG2D1O   CG2DC1     HGA4     9   180.000000    21.966000     2
   NG301   CG2D2O   CG2D2O    NG321     9   180.000000    21.045520     2
   NG301   CG2D2O   CG2DC2   CG2DC1     9   180.000000     2.845120     2
   NG301   CG2D2O   CG2DC2    CG2O1     9   180.000000    10.460000     2
   NG301   CG2D2O   CG2DC2    CG321     9   180.000000    10.460000     2
   NG301   CG2D2O   CG2DC2     HGA4     9   180.000000    21.966000     2
   NG301    CG2N2    NG2D1    SG3O2     9     0.000000     0.083680     2
   NG301    CG2N2    OG301    CG331     9     0.000000     0.167360     1
   NG301    CG2N2    OG301    CG331     9   180.000000    25.355040     2
   NG301   CG2R51   CG2R51    HGR51     9   180.000000     2.008320     2
   NG301   CG2R51   CG2R53   NG2R51     9     0.000000     0.000000     2
   NG301   CG2R51   CG2R53    OG2D1     9     0.000000     1.757280     2
   NG301   CG2R53   NG2R50   CG2R51     9   180.000000    11.045760     2
   NG301   CG2R53   NG2R50   CG2RC0     9   180.000000     3.723760     2
   NG301   CG2R53   NG2R51   CG2RC0     9   180.000000    22.802800     2
   NG301   CG2R53   NG2R51    NG3N1     9     0.000000     0.334720     2
   NG301   CG2R53   SG2R50   CG2R51     9   180.000000    12.761200     2
   NG301   CG2R61   CG2R61    NG311     9   180.000000    10.208960     2
   NG301   CG2R61   CG2R61    SG3O2     9   180.000000    10.041600     2
   NG301   CG2R61   CG2R61    HGR61     9   180.000000    10.041600     2
   NG301   CG2R61   CG2R61    HGR62     9   180.000000    10.041600     2
   NG301   CG2R61   CG2R64   NG2R62     9   180.000000    15.480800     2
   NG301   CG2R61   CG2R64    NG2S3     9   180.000000     9.372160     2
   NG301   CG2R61   CG2R66   CG2R61     9   180.000000     5.857600     2
   NG301   CG2R61   CG2R66     FGR1     9   180.000000    21.840480     2
   NG301   CG2R61   CG2R67   CG2R61     9   180.000000    19.288240     2
   NG301   CG2R61   CG2R67   CG2R67     9     0.000000     0.000000     2
   NG301   CG2R62   CG2R62    HGR63     9   180.000000     5.481040     2
   NG301   CG2R62   NG2R61   CG2RC0     9   180.000000     9.957920     2
   NG301   CG2R62   NG2R61     HGP2     9   180.000000    11.506000     2
   NG301   CG2R64   CG2RC0   CG2RC0     9   180.000000    16.736000     2
   NG301   CG2R64   CG2RC0   NG2R50     9   180.000000    19.664800     2
   NG301   CG2R64   CG2RC0   NG2R51     9   180.000000     8.995600     2
   NG301   CG2R64   CG2RC0   NG2R52     9     0.000000     1.171520     2
   NG301   CG2R64   NG2R60   CG2R61     9   180.000000    12.970400     2
   NG301   CG2R64   NG2R61   CG2R63     9   180.000000     0.502080     2
   NG301   CG2R64   NG2R61     HGP1     9   180.000000     2.092000     2
   NG301   CG2R64   NG2R62   CG2R63     9   180.000000    12.970400     2
   NG301   CG2R64   NG2R62   CG2R64     9   180.000000    15.899200     2
   NG301   CG2R64   NG2R62   CG2RC0     9   180.000000    15.062400     2
   NG301   CG2R64   NG2R62   NG2R62     9   180.000000    24.560080     2
   NG301    CG301    CG331     HGA3     9     0.000000     0.669440     3
   NG301    CG311    CG311    NG321     9   180.000000     2.719600     1
   NG301    CG311    CG311    NG321     9   180.000000     1.799120     3
   NG301    CG311    CG311    NG321     9     0.000000    12.677520     4
   NG301    CG311    CG311   OG3C61     9   180.000000    11.798880     1
   NG301    CG311    CG311   OG3C61     9     0.000000    37.739680     3
   NG301    CG311    CG311    SG311     9     0.000000     2.510400     1
   NG301    CG311    CG311    SG311     9   180.000000     0.836800     2
   NG301    CG311    CG311    SG311     9     0.000000     1.255200     3
   NG301    CG311    CG311    SG3O3     9   180.000000     0.083680     1
   NG301    CG311    CG311    SG3O3     9     0.000000     0.502080     2
   NG301    CG311    CG311    SG3O3     9   180.000000     0.711280     3
   NG301    CG311    CG311     HGA1     9     0.000000     0.000000     3
   NG301    CG311    CG314    CG321     9     0.000000     1.673600     1
   NG301    CG311    CG314    CG321     9     0.000000     3.347200     3
   NG301    CG311    CG314    NG3P3     9   180.000000     7.363840     3
   NG301    CG311    CG314     HGA1     9     0.000000     2.092000     3
   NG301    CG311    CG321    CG2O1     9   180.000000     2.803280     1
   NG301    CG311    CG321    CG2O1     9   180.000000     9.581360     2
   NG301    CG311    CG321    CG2O1     9   180.000000     1.422560     3
   NG301    CG311    CG321    CG2O1     9     0.000000     3.012480     4
   NG301    CG311    CG321    CG2O5     9   180.000000     0.041840     1
   NG301    CG311    CG321    CG2O5     9   180.000000     0.418400     2
   NG301    CG311    CG321    CG2O5     9   180.000000     0.669440     3
   NG301    CG311    CG321    CG2O5     9   180.000000     1.757280     4
   NG301    CG311    CG321   CG2R61     9     0.000000     0.000000     3
   NG301    CG311    CG321   CG2R61     9   180.000000     0.836800     4
   NG301    CG311    CG321    CG321     9     0.000000     0.836800     3
   NG301    CG311    CG321    CG322     9   180.000000     0.711280     3
   NG301    CG311    CG321    CG324     9     0.000000     0.251040     2
   NG301    CG311    CG321    CG324     9   180.000000     4.142160     3
   NG301    CG311    CG321    OG301     9   180.000000     0.418400     1
   NG301    CG311    CG321    OG301     9     0.000000     5.146320     3
   NG301    CG311    CG321   OG3C61     9     0.000000     0.669440     1
   NG301    CG311    CG321   OG3C61     9   180.000000     0.125520     3
   NG301    CG311    CG321     HGA2     9     0.000000     0.669440     3
   NG301    CG311    CG324    NG3P2     9     0.000000     0.334720     3
   NG301    CG311    CG324     HGA2     9     0.000000     0.669440     3
   NG301    CG311    CG331     HGA3     9     0.000000     0.000000     3
   NG301    CG311    NG2D1    NG2D1     9   180.000000     0.334720     1
   NG301    CG311    NG2D1    NG2D1     9   180.000000     0.292880     2
   NG301    CG311    NG2D1    NG2D1     9     0.000000     9.162960     3
   NG301    CG311    NG2D1    NG2D1     9     0.000000     1.129680     4
   NG301    CG311    NG2D1    NG2D1     9     0.000000     0.502080     6
   NG301    CG311    NG2S1    CG2O1     9     0.000000    11.673360     1
   NG301    CG311    NG2S1    CG2O1     9   180.000000     1.171520     3
   NG301    CG311    NG2S1     HGP1     9   180.000000    18.409600     1
   NG301    CG311    NG2S1     HGP1     9     0.000000     0.083680     2
   NG301    CG311    NG301    CG321     9   180.000000     2.092000     1
   NG301    CG311    NG301    CG321     9   180.000000     0.209200     2
   NG301    CG311    NG301    CG321     9     0.000000     4.225840     3
   NG301    CG311   OG3R60    NG2D1     9   180.000000     1.840960     1
   NG301    CG311   OG3R60    NG2D1     9   180.000000     2.301200     2
   NG301    CG311   OG3R60    NG2D1     9     0.000000     3.556400     3
   NG301    CG321    CG321    NG301     9     0.000000     1.338880     1
   NG301    CG321    CG321    NG301     9   180.000000     1.882800     2
   NG301    CG321    CG321    NG301     9   180.000000     3.556400     3
   NG301    CG321    CG321    NG311     9   180.000000     1.213360     1
   NG301    CG321    CG321    NG311     9   180.000000     8.033280     2
   NG301    CG321    CG321    NG311     9   180.000000     2.259360     6
   NG301    CG321    CG321    OG301     9     0.000000     1.171520     3
   NG301    CG321    CG321   OG3C61     9   180.000000     9.121120     3
   NG301    CG321    CG321    SG311     9     0.000000     2.510400     1
   NG301    CG321    CG321    SG311     9   180.000000     0.836800     2
   NG301    CG321    CG321    SG311     9     0.000000     1.255200     3
   NG301    CG321    CG321    SG3O2     9     0.000000     1.255200     1
   NG301    CG321    CG321    SG3O2     9     0.000000     0.502080     2
   NG301    CG321    CG321    SG3O2     9   180.000000     3.138000     3
   NG301    CG321    CG321    SG3O3     9     0.000000     0.878640     1
   NG301    CG321    CG321    SG3O3     9   180.000000     7.824080     3
   NG301    CG321    CG321     HGA2     9     0.000000     0.669440     3
   NG301    CG321    CG322    CG321     9     0.000000     1.255200     1
   NG301    CG321    CG322    CG321     9     0.000000     0.836800     2
   NG301    CG321    CG322    CG321     9     0.000000     1.255200     6
   NG301    CG321    CG322    CG331     9     0.000000     1.924640     3
   NG301    CG321    CG322    CG331     9     0.000000     2.175680     6
   NG301    CG321    CG322     FGA1     9     0.000000     0.753120     3
   NG301    CG321    CG322     FGA1     9   180.000000     1.631760     6
   NG301    CG321    CG324    NG3P2     9   180.000000     0.083680     1
   NG301    CG321    CG324    NG3P2     9     0.000000     0.753120     3
   NG301    CG321    CG324     HGA2     9     0.000000     0.669440     3
   NG301    CG321    CG331     HGA3     9     0.000000     0.753120     3
   NG301    CG321   CG3C31   CG2R61     9   180.000000     6.150480     3
   NG301    CG321   CG3C31   CG3C31     9   180.000000     0.418400     3
   NG301    CG321   CG3C31   CG3C31     9     0.000000     1.171520     4
   NG301    CG321   CG3C41   CG3C41     9   180.000000     0.334720     1
   NG301    CG321   CG3C41   CG3C41     9   180.000000     5.230000     4
   NG301    CG321   CG3C41   OG3C61     9     0.000000     0.376560     1
   NG301    CG321   CG3C41   OG3C61     9   180.000000     0.669440     3
   NG301    CG321   CG3C50   CG2R53     9   180.000000     1.129680     3
   NG301    CG321   CG3C50   CG2R53     9   180.000000     0.251040     4
   NG301    CG321   CG3C50    CG321     9     0.000000     4.058480     3
   NG301    CG321   CG3C50   NG2R53     9   180.000000     0.209200     3
   NG301    CG321   CG3C50   NG2R53     9     0.000000     1.882800     4
   NG301    CG321   CG3RC1   CG3C31     9     0.000000     1.757280     1
   NG301    CG321   CG3RC1   CG3C31     9     0.000000    10.501840     4
   NG301    CG321   CG3RC1   CG3RC1     9     0.000000     0.000000     1
   NG301    CG321   CG3RC1   CG3RC1     9     0.000000     0.711280     2
   NG301    CG321   CG3RC1   CG3RC1     9     0.000000     0.251040     3
   NG301    CG321   CG3RC1   CG3RC1     9   180.000000     0.000000     4
   NG301    CG321   CG3RC1    NG321     9   180.000000     0.041840     1
   NG301    CG321   CG3RC1    NG321     9     0.000000     7.154640     2
   NG301    CG321   CG3RC1    NG321     9   180.000000     1.799120     3
   NG301    CG321   CG3RC1    NG321     9   180.000000    12.217280     4
   NG301    CG321   CG3RC1     HGA1     9     0.000000     0.000000     3
   NG301    CG321    NG2S0    CG2O6     9     0.000000     1.046000     3
   NG301    CG321    NG2S0    CG331     9     0.000000     6.694400     3
   NG301    CG321    NG2S0    CG331     9     0.000000     2.719600     4
   NG301    CG321    NG2S1    CG2O6     9     0.000000     1.004160     1
   NG301    CG321    NG2S1    CG2O6     9   180.000000     3.472720     2
   NG301    CG321    NG2S1    CG2O6     9   180.000000     1.799120     4
   NG301    CG321    NG2S1     HGP1     9   180.000000     4.518720     1
   NG301    CG321    NG2S1     HGP1     9   180.000000     1.255200     4
   NG301    CG321    NG311    CG321     9     0.000000     0.334720     1
   NG301    CG321    NG311    CG321     9     0.000000     2.468560     2
   NG301    CG321    NG311    CG321     9     0.000000    11.003920     3
   NG301    CG321    NG311   HGPAM1     9     0.000000     7.112800     2
   NG301    CG321    NG311   HGPAM1     9     0.000000     1.255200     3
   NG301    CG321    SG311    CG2O6     9     0.000000     2.050160     1
   NG301    CG321    SG311    CG2O6     9   180.000000     1.087840     2
   NG301    CG321    SG311    CG2O6     9     0.000000     1.715440     3
   NG301    CG321    SG311    CG2O6     9   180.000000     5.773920     4
   NG301    CG324    NG3P2    CG324     9     0.000000     0.083680     1
   NG301    CG324    NG3P2    CG324     9     0.000000     0.083680     2
   NG301    CG324    NG3P2    CG324     9   180.000000     0.000000     3
   NG301    CG324    NG3P2     HGP2     9   180.000000     2.635920     3
   NG301   CG3C31   CG3C31     HGA2     9   180.000000     0.000000     5
   NG301   CG3C41   CG3C41   OG3C51     9   180.000000     0.376560     3
   NG301   CG3C41   CG3C41   OG3C51     9     0.000000     0.418400     6
   NG301   CG3C50   CG3C52   CG3C52     9   180.000000     1.255200     3
   NG301   CG3C50   CG3C52   OG3C51     9     0.000000     4.100320     3
   NG301   CG3C50   CG3C52   OG3C51     9   180.000000     1.673600     6
   NG301   CG3C50   CG3C52     HGA2     9   180.000000     0.627600     3
   NG301   CG3C50    NG301    CG321     9   180.000000    13.765360     1
   NG301   CG3C50    NG301    CG321     9   180.000000     5.564720     3
   NG301   CG3C51   CG3C51    OG311     9     0.000000     0.000000     3
   NG301   CG3C51   CG3C51     HGA1     9     0.000000     0.815880     3
   NG301   CG3C51   CG3C52   CG3C54     9     0.000000     0.167360     3
   NG301   CG3C51   CG3C52   CG3C54     9   180.000000     4.058480     6
   NG301   CG3C51   CG3C52     HGA2     9   180.000000     0.627600     3
   NG301   CG3C51   CG3C53    CG331     9   180.000000     1.255200     3
   NG301   CG3C51   CG3C53    NG3P2     9     0.000000     7.363840     3
   NG301   CG3C51   CG3C53    NG3P2     9   180.000000     8.116960     6
   NG301   CG3C51   CG3C53     HGA1     9     0.000000     0.836800     3
   NG301   CG3C51   CG3C54    NG3P2     9   180.000000     1.882800     3
   NG301   CG3C51   CG3C54    NG3P2     9   180.000000    10.501840     6
   NG301   CG3C51   CG3C54     HGA2     9   180.000000     0.627600     3
   NG301   CG3C51   CG3RC1    CG321     9   180.000000    10.334480     3
   NG301   CG3C51   CG3RC1   CG3C52     9     0.000000     0.334720     2
   NG301   CG3C51   CG3RC1   CG3C52     9   180.000000    26.233680     3
   NG301   CG3C51   CG3RC1     HGA1     9     0.000000     0.836800     3
   NG301   CG3C51   OG3C51   CG3C51     9     0.000000     0.000000     3
   NG301   CG3RC1   CG3RC1   OG3C61     9     0.000000    28.618560     3
   NG301   CG3RC1   CG3RC1     HGA1     9     0.000000     0.000000     3
   NG311   CG2D1O   CG2D1O    NG311     9   180.000000     5.020800     2
   NG311   CG2D1O   CG2D1O    OG312     9   180.000000    19.037200     2
   NG311   CG2D1O   CG2D1O    SG311     9   180.000000    13.890880     2
   NG311   CG2D1O   CG2D1O     HGA4     9   180.000000     6.652560     2
   NG311   CG2D1O   CG2DC1    CG2N2     9   180.000000    12.426480     2
   NG311   CG2D1O   CG2DC1    CG2O1     9   180.000000    10.460000     2
   NG311   CG2D1O   CG2DC1    CG2O3     9   180.000000    10.460000     2
   NG311   CG2D1O   CG2DC1    CG321     9   180.000000    10.460000     2
   NG311   CG2D1O   CG2DC1     HGA4     9   180.000000    16.610480     2
   NG311   CG2D1O    CG2O1    NG2D1     9   180.000000    12.259120     2
   NG311   CG2D1O    CG2O1    NG2D1     9   180.000000     1.673600     3
   NG311   CG2D1O    CG2O1    NG2D1     9     0.000000     1.966480     6
   NG311   CG2D1O    CG2O1    SG2D1     9     0.000000     0.000000     2
   NG311   CG2D1O    CG2O1    SG2D1     9   180.000000     9.455840     3
   NG311   CG2D1O    CG2O1    SG2D1     9     0.000000     1.255200     6
   NG311   CG2D1O   CG2R61   CG2R61     9   180.000000    12.426480     2
   NG311   CG2D1O   CG2R61   CG2R61     9     0.000000     2.510400     4
   NG311   CG2D1O    CG314    CG321     9     0.000000     0.251040     2
   NG311   CG2D1O    CG314    CG321     9     0.000000     5.690240     3
   NG311   CG2D1O    CG314    NG3P1     9   180.000000     0.585760     1
   NG311   CG2D1O    CG314    NG3P1     9   180.000000     0.209200     2
   NG311   CG2D1O    CG314    NG3P1     9   180.000000     0.460240     3
   NG311   CG2D1O    CG314     HGA1     9     0.000000     0.000000     3
   NG311   CG2D1O    CG321    CG321     9     0.000000     0.251040     2
   NG311   CG2D1O    CG321    CG321     9     0.000000     0.334720     3
   NG311   CG2D1O    CG321     HGA2     9     0.000000     0.000000     3
   NG311   CG2D2O   CG2D2O    NG311     9   180.000000     5.020800     2
   NG311   CG2D2O   CG2D2O    OG312     9   180.000000    19.037200     2
   NG311   CG2D2O   CG2D2O    SG311     9   180.000000    13.890880     2
   NG311   CG2D2O   CG2D2O     HGA4     9   180.000000     6.652560     2
   NG311   CG2D2O   CG2DC2    CG2N2     9   180.000000    12.426480     2
   NG311   CG2D2O   CG2DC2    CG2O1     9   180.000000    10.460000     2
   NG311   CG2D2O   CG2DC2    CG2O3     9   180.000000    10.460000     2
   NG311   CG2D2O   CG2DC2    CG321     9   180.000000    10.460000     2
   NG311   CG2D2O   CG2DC2     HGA4     9   180.000000    16.610480     2
   NG311   CG2D2O    CG2O1    NG2D1     9   180.000000    12.259120     2
   NG311   CG2D2O    CG2O1    NG2D1     9   180.000000     1.673600     3
   NG311   CG2D2O    CG2O1    NG2D1     9     0.000000     1.966480     6
   NG311   CG2D2O    CG2O1    SG2D1     9     0.000000     0.000000     2
   NG311   CG2D2O    CG2O1    SG2D1     9   180.000000     9.455840     3
   NG311   CG2D2O    CG2O1    SG2D1     9     0.000000     1.255200     6
   NG311   CG2D2O   CG2R61   CG2R61     9   180.000000    12.426480     2
   NG311   CG2D2O   CG2R61   CG2R61     9     0.000000     2.510400     4
   NG311   CG2D2O    CG314    CG321     9     0.000000     0.251040     2
   NG311   CG2D2O    CG314    CG321     9     0.000000     5.690240     3
   NG311   CG2D2O    CG314    NG3P1     9   180.000000     0.585760     1
   NG311   CG2D2O    CG314    NG3P1     9   180.000000     0.209200     2
   NG311   CG2D2O    CG314    NG3P1     9   180.000000     0.460240     3
   NG311   CG2D2O    CG314     HGA1     9     0.000000     0.000000     3
   NG311   CG2D2O    CG321    CG321     9     0.000000     0.251040     2
   NG311   CG2D2O    CG321    CG321     9     0.000000     0.334720     3
   NG311   CG2D2O    CG321     HGA2     9     0.000000     0.000000     3
   NG311    CG2N1    NG2D1     HGP1     9   180.000000    21.756800     2
   NG311    CG2N1    NG2P1    CG2N1     9   180.000000     0.878640     2
   NG311    CG2N1    NG2P1     HGP2     9     0.000000     1.966480     2
   NG311    CG2N1    NG321   HGPAM2     9   180.000000     0.836800     2
   NG311    CG2N1    NG321   HGPAM2     9     0.000000     0.627600     6
   NG311    CG2N2    NG2D1    CG321     9   180.000000    27.196000     2
   NG311    CG2N2    SG311    CG331     9   180.000000     2.677760     1
   NG311    CG2N2    SG311    CG331     9   180.000000     4.686080     2
   NG311    CG2N2    SG311    CG331     9     0.000000     1.380720     4
   NG311   CG2R51   CG2R51    HGR52     9   180.000000     3.347200     2
   NG311   CG2R51   CG2R52    CG2O1     9     0.000000     0.000000     2
   NG311   CG2R51   CG2R52   NG2R50     9   180.000000    25.606080     2
   NG311   CG2R53   CG2R53    NG311     9     0.000000     0.292880     2
   NG311   CG2R53   NG2R50   CG2R51     9   180.000000    32.384160     2
   NG311   CG2R53   NG2R50   CG2RC0     9     0.000000     0.000000     2
   NG311   CG2R53   NG2R50   OG2R50     9   180.000000     5.857600     2
   NG311   CG2R53   NG2R51   CG2RC0     9   180.000000    31.338160     2
   NG311   CG2R53   NG2R51     HGP1     9   180.000000     2.217520     2
   NG311   CG2R53   SG2R50   CG2R51     9     0.000000     1.129680     2
   NG311   CG2R61   CG2R61    NG311     9   180.000000    10.208960     2
   NG311   CG2R61   CG2R61    OG301     9   180.000000    10.794720     2
   NG311   CG2R61   CG2R61   OG3R60     9   180.000000    10.794720     2
   NG311   CG2R61   CG2R61    SG311     9   180.000000    14.936880     2
   NG311   CG2R61   CG2R61    SG3O2     9   180.000000    10.041600     2
   NG311   CG2R61   CG2R61    HGR61     9   180.000000    10.041600     2
   NG311   CG2R61   CG2R64   NG2R60     9   180.000000    13.598000     2
   NG311   CG2R61   CG2R64    NG311     9   180.000000     4.351360     2
   NG311   CG2R61   CG2R66   CG2R66     9   180.000000    12.970400     2
   NG311   CG2R61   CG2R66     FGR1     9   180.000000     7.656720     2
   NG311   CG2R61   CG2R67   CG2R61     9   180.000000    16.945200     2
   NG311   CG2R61   CG2R67   CG2R67     9     0.000000     0.000000     2
   NG311   CG2R62   CG2R62    NG311     9   180.000000    20.878160     2
   NG311   CG2R62   CG2R62    HGR63     9   180.000000     8.033280     2
   NG311   CG2R62   CG2R63   NG2R61     9   180.000000    16.736000     2
   NG311   CG2R62   CG2R63   NG2R62     9   180.000000    25.187680     2
   NG311   CG2R62   CG2R63    OG2D4     9   180.000000     4.895280     2
   NG311   CG2R62   CG2R64   NG2R61     9   180.000000    19.915840     2
   NG311   CG2R62   CG2R64   NG2R62     9   180.000000     5.355520     2
   NG311   CG2R62   CG2R64    NG301     9   180.000000    12.761200     2
   NG311   CG2R62   CG2R64    NG311     9   180.000000    12.761200     2
   NG311   CG2R62   NG2R61   CG2R62     9   180.000000    16.275760     2
   NG311   CG2R62   NG2R61     HGP2     9   180.000000    13.179600     2
   NG311   CG2R64   CG2RC0   CG2RC0     9   180.000000    12.970400     2
   NG311   CG2R64   CG2RC0   NG2R50     9   180.000000     0.000000     2
   NG311   CG2R64   NG2R60   CG2R61     9   180.000000    12.970400     2
   NG311   CG2R64   NG2R60   CG2R62     9   180.000000    12.970400     2
   NG311   CG2R64   NG2R61   CG2R61     9   180.000000    16.736000     2
   NG311   CG2R64   NG2R61   CG2R63     9   180.000000    12.970400     2
   NG311   CG2R64   NG2R61   CG2R64     9   180.000000    12.970400     2
   NG311   CG2R64   NG2R61    CG331     9   180.000000    14.644000     2
   NG311   CG2R64   NG2R61     HGP1     9   180.000000     2.092000     2
   NG311   CG2R64   NG2R61     CN7B     9   180.000000    14.644000     2
   NG311   CG2R64   NG2R62   CG2R63     9   180.000000    12.970400     2
   NG311   CG2R64   NG2R62   CG2R64     9   180.000000    12.970400     2
   NG311   CG2R64   NG2R62   CG2RC0     9   180.000000    12.970400     2
   NG311   CG2R64   NG2R62   NG2R62     9   180.000000    22.928320     2
   NG311   CG2RC0   CG2RC0    NG311     9   180.000000     0.083680     2
   NG311    CG301    CG321    CG301     9     0.000000     0.083680     2
   NG311    CG301    CG321    CG301     9   180.000000     0.585760     3
   NG311    CG301    CG321    CG311     9     0.000000     0.836800     3
   NG311    CG301    CG321    CG321     9     0.000000     0.836800     3
   NG311    CG301    CG321     HGA2     9     0.000000     0.669440     3
   NG311    CG301    CG324    NG3P2     9   180.000000     1.589920     2
   NG311    CG301    CG324    NG3P2     9     0.000000     6.359680     3
   NG311    CG301    CG324     HGA2     9     0.000000     0.000000     3
   NG311    CG301    CG331     HGA3     9     0.000000     0.669440     3
   NG311    CG301    OG311     HGP1     9     0.000000     6.652560     1
   NG311    CG301    OG311     HGP1     9     0.000000     1.924640     2
   NG311    CG301    OG311     HGP1     9     0.000000     2.761440     3
   NG311    CG311    CG311    NG311     9   180.000000     0.251040     1
   NG311    CG311    CG311    NG311     9   180.000000     1.506240     3
   NG311    CG311    CG311    NG321     9   180.000000    12.510160     1
   NG311    CG311    CG311    NG321     9   180.000000     0.000000     3
   NG311    CG311    CG311    OG311     9   180.000000     1.673600     1
   NG311    CG311    CG311    OG311     9     0.000000     3.347200     3
   NG311    CG311    CG311    SG311     9     0.000000     2.510400     1
   NG311    CG311    CG311    SG311     9   180.000000     0.836800     2
   NG311    CG311    CG311    SG311     9     0.000000     1.255200     3
   NG311    CG311    CG311     HGA1     9     0.000000     2.092000     3
   NG311    CG311    CG314    CG321     9     0.000000     1.673600     1
   NG311    CG311    CG314    CG321     9     0.000000     3.347200     3
   NG311    CG311    CG314    NG3P1     9   180.000000     3.305360     3
   NG311    CG311    CG314     HGA1     9     0.000000     2.092000     3
   NG311    CG311    CG321    CG2O5     9     0.000000     1.966480     1
   NG311    CG311    CG321    CG2O5     9     0.000000     1.004160     2
   NG311    CG311    CG321    CG2O5     9   180.000000     2.008320     3
   NG311    CG311    CG321   CG2R61     9     0.000000     0.209200     3
   NG311    CG311    CG321   CG2R61     9     0.000000     2.594080     4
   NG311    CG311    CG321    CG301     9     0.000000     0.836800     3
   NG311    CG311    CG321    CG321     9     0.000000     0.836800     3
   NG311    CG311    CG321    NG2S0     9   180.000000    15.104240     1
   NG311    CG311    CG321    NG2S0     9   180.000000     3.138000     6
   NG311    CG311    CG321    NG311     9   180.000000     1.548080     3
   NG311    CG311    CG321    NG311     9   180.000000    22.133360     4
   NG311    CG311    CG321    OG311     9   180.000000     1.673600     1
   NG311    CG311    CG321    OG311     9     0.000000     3.347200     3
   NG311    CG311    CG321    SG311     9     0.000000     2.510400     1
   NG311    CG311    CG321    SG311     9   180.000000     0.836800     2
   NG311    CG311    CG321    SG311     9     0.000000     1.255200     3
   NG311    CG311    CG321    SG3O2     9     0.000000     0.125520     1
   NG311    CG311    CG321    SG3O2     9   180.000000     0.000000     2
   NG311    CG311    CG321    SG3O2     9   180.000000     0.460240     3
   NG311    CG311    CG321    SG3O3     9   180.000000     2.426720     1
   NG311    CG311    CG321    SG3O3     9   180.000000     0.794960     2
   NG311    CG311    CG321    SG3O3     9     0.000000     1.589920     3
   NG311    CG311    CG321     HGA2     9     0.000000     0.669440     3
   NG311    CG311    CG324    NG3P1     9     0.000000     1.338880     3
   NG311    CG311    CG324    NG3P1     9   180.000000     2.761440     4
   NG311    CG311    CG324     HGA2     9     0.000000     0.669440     3
   NG311    CG311    CG331     HGA3     9     0.000000     0.669440     3
   NG311    CG311   CG3C31   CG3C31     9     0.000000     0.083680     3
   NG311    CG311   CG3C31   CG3C31     9     0.000000     1.464400     6
   NG311    CG311   CG3C31     HGA1     9     0.000000     0.000000     3
   NG311    CG311   CG3C51   CG3C52     9     0.000000     7.363840     3
   NG311    CG311   CG3C51   CG3C52     9     0.000000     7.322000     6
   NG311    CG311   CG3C51   NG3C51     9   180.000000    15.397120     1
   NG311    CG311   CG3C51   NG3C51     9   180.000000     0.460240     6
   NG311    CG311   CG3C51     HGA1     9     0.000000     0.000000     3
   NG311    CG311   CG3RC1   CG3C52     9   180.000000     1.087840     3
   NG311    CG311   CG3RC1   CG3RC1     9     0.000000     5.857600     2
   NG311    CG311   CG3RC1   CG3RC1     9   180.000000     0.334720     4
   NG311    CG311   CG3RC1     HGA1     9     0.000000     0.000000     3
   NG311    CG311    NG2S0   CG2D1O     9   180.000000     2.259360     1
   NG311    CG311    NG2S0   CG2D1O     9     0.000000     0.627600     2
   NG311    CG311    NG2S0   CG2D1O     9     0.000000     0.836800     3
   NG311    CG311    NG2S0   CG2D2O     9   180.000000     2.259360     1
   NG311    CG311    NG2S0   CG2D2O     9     0.000000     0.627600     2
   NG311    CG311    NG2S0   CG2D2O     9     0.000000     0.836800     3
   NG311    CG311    NG2S0    CG2O1     9     0.000000     0.585760     1
   NG311    CG311    NG2S0    CG2O1     9   180.000000     1.631760     3
   NG311    CG311    NG2S0    CG331     9   180.000000     0.543920     1
   NG311    CG311    NG2S0    CG331     9   180.000000     1.757280     2
   NG311    CG311    NG2S1    CG2O1     9     0.000000     7.782240     1
   NG311    CG311    NG2S1    CG2O1     9   180.000000     0.209200     3
   NG311    CG311    NG2S1     HGP1     9   180.000000     0.836800     1
   NG311    CG311    NG2S1     HGP1     9   180.000000     3.681920     2
   NG311    CG311    NG311   CG2R61     9   180.000000    10.460000     1
   NG311    CG311    NG311   CG2R61     9     0.000000     6.276000     2
   NG311    CG311    NG311   CG2R61     9     0.000000     2.092000     3
   NG311    CG311    NG311    CG321     9   180.000000     3.221680     1
   NG311    CG311    NG311    CG321     9     0.000000     7.112800     2
   NG311    CG311    NG311    CG321     9   180.000000     3.179840     3
   NG311    CG311    NG311    CG321     9   180.000000     3.263520     4
   NG311    CG311    NG311   HGPAM1     9     0.000000     7.112800     2
   NG311    CG311    NG311   HGPAM1     9     0.000000     1.255200     3
   NG311    CG311    OG311     HGP1     9     0.000000     9.330320     1
   NG311    CG311    OG311     HGP1     9     0.000000     0.209200     2
   NG311    CG311    OG311     HGP1     9     0.000000     2.594080     3
   NG311    CG311    OG311     HGP1     9     0.000000     2.719600     6
   NG311    CG314    CG331     HGA3     9     0.000000     0.669440     3
   NG311    CG314    NG2P1    CG2N1     9   180.000000     0.585760     4
   NG311    CG314    NG2P1    CG2N1     9   180.000000     2.803280     6
   NG311    CG314    NG2P1     HGP2     9     0.000000    18.451440     2
   NG311    CG314    NG2P1     HGP2     9   180.000000     0.083680     6
   NG311    CG314    NG3P2    CG301     9     0.000000     0.167360     3
   NG311    CG314    NG3P2    CG301     9     0.000000     3.263520     4
   NG311    CG314    NG3P2     HGP2     9   180.000000     2.468560     3
   NG311    CG314    NG3P2     HGP2     9     0.000000     2.803280     6
   NG311    CG314    NG3P3     HGP2     9     0.000000     1.953928     3
   NG311    CG314    SG311    CG321     9     0.000000     3.213730     1
   NG311    CG314    SG311    CG321     9     0.000000     1.692846     2
   NG311    CG314    SG311    CG321     9     0.000000     2.348479     3
   NG311    CG314    SG311    CG321     9     0.000000     0.166942     4
   NG311    CG314    SG311    CG331     9     0.000000     3.213730     1
   NG311    CG314    SG311    CG331     9     0.000000     1.692846     2
   NG311    CG314    SG311    CG331     9     0.000000     2.348479     3
   NG311    CG314    SG311    CG331     9     0.000000     0.166942     4
   NG311    CG321    CG321    NG311     9     0.000000     4.393200     3
   NG311    CG321    CG321    NG311     9     0.000000     6.694400     4
   NG311    CG321    CG321    OG301     9     0.000000     5.773920     3
   NG311    CG321    CG321   OG3C61     9     0.000000     4.853440     3
   NG311    CG321    CG321    SG311     9     0.000000     2.510400     1
   NG311    CG321    CG321    SG311     9   180.000000     0.836800     2
   NG311    CG321    CG321    SG311     9     0.000000     1.255200     3
   NG311    CG321    CG321    SG3O2     9   180.000000     3.891120     1
   NG311    CG321    CG321    SG3O2     9   180.000000    17.196240     2
   NG311    CG321    CG321    SG3O2     9     0.000000     4.727920     3
   NG311    CG321    CG321    SG3O3     9     0.000000     1.046000     1
   NG311    CG321    CG321    SG3O3     9     0.000000     1.087840     2
   NG311    CG321    CG321    SG3O3     9   180.000000     0.543920     3
   NG311    CG321    CG321    SG3O3     9     0.000000     1.171520     6
   NG311    CG321    CG321     HGA2     9     0.000000     0.815880     3
   NG311    CG321    CG322    CG321     9     0.000000     7.238320     3
   NG311    CG321    CG322    CG321     9   180.000000     0.083680     6
   NG311    CG321    CG322    CG331     9   180.000000     5.899440     3
   NG311    CG321    CG322    CG331     9     0.000000     0.251040     6
   NG311    CG321    CG322     FGA1     9   180.000000     0.794960     3
   NG311    CG321    CG322     FGA1     9   180.000000     0.209200     6
   NG311    CG321    CG324    NG2P1     9   180.000000     1.004160     2
   NG311    CG321    CG324    NG2P1     9   180.000000    10.083440     3
   NG311    CG321    CG324    NG3P1     9   180.000000     1.255200     1
   NG311    CG321    CG324    NG3P1     9   180.000000     1.631760     3
   NG311    CG321    CG324     HGA2     9     0.000000     0.836800     3
   NG311    CG321    CG331     HGA3     9     0.000000     0.669440     3
   NG311    CG321   CG3C31   CG2R61     9     0.000000     6.694400     3
   NG311    CG321   CG3C31   CG2R61     9   180.000000     0.041840     4
   NG311    CG321   CG3C31   CG3C31     9     0.000000     4.686080     3
   NG311    CG321   CG3C31   CG3C31     9     0.000000     1.087840     4
   NG311    CG321   CG3C41   CG2R61     9     0.000000     6.066800     4
   NG311    CG321   CG3C41   CG3C41     9     0.000000     0.878640     1
   NG311    CG321   CG3C41   CG3C41     9   180.000000     0.836800     4
   NG311    CG321   CG3C41    OG301     9     0.000000     0.167360     1
   NG311    CG321   CG3C41    OG301     9     0.000000     8.200640     3
   NG311    CG321   CG3C50   CG2R61     9   180.000000     1.840960     3
   NG311    CG321   CG3C50   CG2R61     9     0.000000    17.447280     4
   NG311    CG321   CG3C50   CG3C52     9   180.000000     1.380720     3
   NG311    CG321   CG3RC1   CG3C41     9     0.000000     0.669440     1
   NG311    CG321   CG3RC1   CG3C41     9   180.000000     1.129680     4
   NG311    CG321   CG3RC1   CG3C51     9     0.000000     4.393200     2
   NG311    CG321   CG3RC1   CG3C51     9   180.000000     2.468560     3
   NG311    CG321   CG3RC1   CG3C52     9     0.000000     3.012480     2
   NG311    CG321   CG3RC1   CG3C52     9   180.000000     1.087840     4
   NG311    CG321   CG3RC1   CG3RC1     9     0.000000     0.585760     1
   NG311    CG321   CG3RC1   CG3RC1     9   180.000000     0.669440     2
   NG311    CG321   CG3RC1   CG3RC1     9     0.000000     2.761440     3
   NG311    CG321   CG3RC1   CG3RC1     9     0.000000     2.803280     4
   NG311    CG321   CG3RC1     HGA1     9     0.000000     0.000000     3
   NG311    CG321    NG2D1    NG2D1     9     0.000000     0.794960     1
   NG311    CG321    NG2D1    NG2D1     9     0.000000    29.246160     2
   NG311    CG321    NG2D1    NG2D1     9     0.000000    14.518480     3
   NG311    CG321    NG2S0    CG2O1     9   180.000000     3.263520     1
   NG311    CG321    NG2S0    CG2O1     9     0.000000     1.255200     2
   NG311    CG321    NG2S0    CG321     9     0.000000     2.886960     2
   NG311    CG321    NG2S3    CG321     9     0.000000     9.162960     1
   NG311    CG321    NG2S3    CG321     9   180.000000     0.585760     2
   NG311    CG321    NG2S3    CG321     9     0.000000     0.292880     6
   NG311    CG321    NG2S3    SG3O1     9   180.000000     2.092000     1
   NG311    CG321    NG2S3    SG3O1     9     0.000000     5.313680     2
   NG311    CG321    NG2S3    SG3O1     9   180.000000     3.012480     3
   NG311    CG321    NG2S3    SG3O1     9   180.000000     0.836800     4
   NG311    CG321    NG2S3    SG3O1     9   180.000000     2.552240     6
   NG311    CG321    NG301    CG321     9   180.000000     0.753120     1
   NG311    CG321    NG301    CG321     9   180.000000     3.598240     2
   NG311    CG321    NG301    CG321     9     0.000000    13.472480     3
   NG311    CG321    NG301    CG331     9   180.000000     1.715440     1
   NG311    CG321    NG301    CG331     9     0.000000     1.589920     2
   NG311    CG321    NG301    CG331     9     0.000000    10.250800     3
   NG311    CG321    NG311   CG2R61     9   180.000000    10.460000     1
   NG311    CG321    NG311   CG2R61     9     0.000000     6.276000     2
   NG311    CG321    NG311   CG2R61     9     0.000000     2.092000     3
   NG311    CG321    NG311    SG3O2     9   180.000000     5.857600     1
   NG311    CG321    NG311    SG3O2     9     0.000000     2.092000     2
   NG311    CG321    NG311    SG3O2     9     0.000000     0.418400     3
   NG311    CG321    NG311     HGP1     9     0.000000     0.418400     3
   NG311    CG321    NG311   HGPAM1     9     0.000000     7.112800     2
   NG311    CG321    NG311   HGPAM1     9     0.000000     1.255200     3
   NG311   CG3C31   CG3C31     HGA2     9   180.000000     0.000000     5
   NG311   CG3C41   CG3C41    NG311     9     0.000000     3.263520     3
   NG311   CG3C41   CG3C41    NG311     9     0.000000    10.794720     6
   NG311   CG3C41   CG3C41    OG311     9   180.000000     0.292880     1
   NG311   CG3C41   CG3C41    OG311     9     0.000000     3.054320     3
   NG311   CG3C41   CG3C41    OG311     9   180.000000     0.167360     6
   NG311   CG3C41   CG3C41   OG3C51     9     0.000000     3.891120     3
   NG311   CG3C41   CG3C41   OG3C51     9   180.000000     1.422560     4
   NG311   CG3C41   CG3C41   OG3R60     9     0.000000     5.062640     2
   NG311   CG3C41   CG3C41   OG3R60     9   180.000000     3.807440     3
   NG311   CG3C41   CG3C41    SG3O2     9     0.000000     0.251040     3
   NG311   CG3C41   CG3C41    SG3O2     9   180.000000     0.920480     6
   NG311   CG3C41   CG3C41     HGA1     9     0.000000     0.000000     3
   NG311   CG3C41   CG3C41     HGA2     9     0.000000     0.000000     3
   NG311   CG3C50   CG3C52   CG3C51     9   180.000000     1.255200     3
   NG311   CG3C50   CG3C52   CG3C52     9   180.000000     1.255200     3
   NG311   CG3C50   CG3C52     HGA2     9   180.000000     0.627600     3
   NG311   CG3C50    NG2S0    CG2O1     9   180.000000     3.430880     3
   NG311   CG3C50    NG2S0    CG2O1     9   180.000000     2.008320     4
   NG311   CG3C50    NG2S0    CG321     9   180.000000     0.543920     3
   NG311   CG3C50    NG2S0    CG321     9     0.000000     6.527040     6
   NG311   CG3C50    NG2S1    CG2O1     9   180.000000     5.062640     3
   NG311   CG3C50    NG2S1    CG2O1     9   180.000000     3.598240     4
   NG311   CG3C50    NG2S1     HGP1     9   180.000000     0.000000     1
   NG311   CG3C50    NG2S1     HGP1     9   180.000000     1.924640     4
   NG311   CG3C50    NG311    CG321     9   180.000000     1.004160     1
   NG311   CG3C50    NG311    CG321     9   180.000000    10.334480     3
   NG311   CG3C50    NG311    CG321     9     0.000000    18.074880     4
   NG311   CG3C50    NG311   HGPAM1     9   180.000000     2.803280     2
   NG311   CG3C50    NG311   HGPAM1     9   180.000000     4.435040     3
   NG311   CG3C50    NG311   HGPAM1     9   180.000000     2.175680     6
   NG311   CG3C51   CG3C51    OG301     9     0.000000     0.000000     3
   NG311   CG3C51   CG3C51    OG311     9     0.000000     0.000000     3
   NG311   CG3C51   CG3C51     HGA1     9     0.000000     0.815880     3
   NG311   CG3C51   CG3C52   CG3C52     9   180.000000     1.255200     3
   NG311   CG3C51   CG3C52     HGA2     9   180.000000     0.627600     3
   NG311   CG3C51   CG3RC1   CG3RC1     9   180.000000     3.347200     4
   NG311   CG3C51   CG3RC1   CG3RC1     9     0.000000     2.092000     6
   NG311   CG3C51   CG3RC1   OG3C31     9   180.000000     3.347200     4
   NG311   CG3C51   CG3RC1   OG3C31     9     0.000000     2.092000     6
   NG311   CG3C51   CG3RC1     HGA1     9     0.000000     0.815880     3
   NG311   CG3RC1   NG2R53   CG2R53     9   180.000000     0.836800     3
   NG311   CG3RC1   NG2R53    CG321     9     0.000000     0.962320     3
   NG321   CG2D1O   CG2D1O     HGA4     9   180.000000     6.736240     2
   NG321   CG2D1O    CG2D2     HGA5     9   180.000000     8.368000     2
   NG321   CG2D1O   CG2DC1   CG2DC2     9   180.000000    14.685840     2
   NG321   CG2D1O   CG2DC1    CG2O1     9   180.000000    10.460000     2
   NG321   CG2D1O   CG2DC2   CG2DC2     9     0.000000     0.000000     2
   NG321   CG2D1O   CG2DC2     HGA4     9   180.000000     3.054320     2
   NG321   CG2D1O    NG321   HGPAM2     9   180.000000    10.250800     2
   NG321   CG2D1O    NG321   HGPAM2     9   180.000000     0.418400     6
   NG321   CG2D2O   CG2D2O     HGA4     9   180.000000     6.736240     2
   NG321   CG2D2O   CG2DC1   CG2DC1     9     0.000000     0.000000     2
   NG321   CG2D2O   CG2DC1     HGA4     9   180.000000     3.054320     2
   NG321   CG2D2O   CG2DC2   CG2DC1     9   180.000000    14.685840     2
   NG321   CG2D2O   CG2DC2    CG2O1     9   180.000000    10.460000     2
   NG321   CG2D2O    NG321   HGPAM2     9   180.000000    10.250800     2
   NG321   CG2D2O    NG321   HGPAM2     9   180.000000     0.418400     6
   NG321    CG2N1    NG2D1    CG2O1     9   180.000000     1.631760     1
   NG321    CG2N1    NG2D1    CG2O1     9   180.000000    29.539040     2
   NG321    CG2N1    NG2D1    CG2O1     9   180.000000     1.129680     3
   NG321    CG2N1    NG2D1    CG331     9   180.000000    27.196000     2
   NG321    CG2N1    NG2D1    OG301     9   180.000000     9.528223     2
   NG321    CG2N1    NG2D1     HGP1     9   180.000000    21.756800     2
   NG321    CG2N1    NG2P1    CG2N1     9   180.000000     0.669440     1
   NG321    CG2N1    NG2P1    CG2N1     9   180.000000     5.397360     2
   NG321    CG2N1    NG2P1    CG2N1     9   180.000000     2.050160     3
   NG321    CG2N1    NG2P1     HGP2     9   180.000000     0.334720     2
   NG321    CG2N1    NG311    CG331     9   180.000000     2.092000     2
   NG321    CG2N1    NG311   HGPAM1     9   180.000000    11.715200     2
   NG321    CG2N1    NG321   HGPAM2     9   180.000000     0.836800     2
   NG321    CG2N1    NG321   HGPAM2     9     0.000000     0.627600     6
   NG321    CG2N2   CG2R61   CG2R61     9   180.000000     7.112800     2
   NG321    CG2N2   CG2R61   CG2R61     9   180.000000     0.878640     4
   NG321    CG2N2   CG2R61   CG2R61     9     0.000000     0.334720     6
   NG321    CG2N2    NG2D1   CG2R62     9     0.000000     2.175680     1
   NG321    CG2N2    NG2D1   CG2R62     9     0.000000     0.753120     2
   NG321    CG2N2    NG2D1   CG2R62     9     0.000000    13.472480     3
   NG321    CG2N2    NG2D1   CG2R62     9   180.000000     4.644240     4
   NG321    CG2N2    NG2D1   CG2R62     9     0.000000     1.631760     5
   NG321    CG2N2    NG2D1   CG2R62     9     0.000000     3.932960     6
   NG321    CG2N2    NG2D1    CG321     9   180.000000    27.196000     2
   NG321    CG2N2    NG2D1    NG3N1     9   180.000000    42.802320     2
   NG321    CG2N2    SG311    CG321     9   180.000000     2.677760     1
   NG321    CG2N2    SG311    CG321     9   180.000000     4.686080     2
   NG321    CG2N2    SG311    CG321     9     0.000000     1.380720     4
   NG321    CG2N2    SG311    CG331     9   180.000000     2.677760     1
   NG321    CG2N2    SG311    CG331     9   180.000000     4.686080     2
   NG321    CG2N2    SG311    CG331     9     0.000000     1.380720     4
   NG321    CG2N2    SG311   CG3RC1     9     0.000000     1.255200     1
   NG321    CG2N2    SG311   CG3RC1     9   180.000000     4.142160     2
   NG321    CG2N2    SG311   CG3RC1     9   180.000000     2.133840     4
   NG321   CG2R51   CG2R51    HGR51     9     0.000000     0.000000     2
   NG321   CG2R51    NG3P2   NG3C51     9   180.000000    11.798880     2
   NG321   CG2R51    NG3P2   NG3C51     9     0.000000     0.292880     3
   NG321   CG2R51    NG3P2     HGP2     9     0.000000     2.133840     3
   NG321   CG2R53   NG2R50   CG2R51     9   180.000000    27.698080     2
   NG321   CG2R53   SG2R50   CG2R51     9     0.000000     1.548080     2
   NG321    CG301    CG311    CG2O2     9     0.000000     0.376560     1
   NG321    CG301    CG311    CG2O2     9     0.000000     0.125520     2
   NG321    CG301    CG311    CG2O2     9   180.000000     1.087840     3
   NG321    CG301    CG311    CG321     9     0.000000     1.673600     1
   NG321    CG301    CG311    CG321     9     0.000000     3.347200     3
   NG321    CG301    CG311     HGA1     9     0.000000     2.092000     3
   NG321    CG301    CG321    CG321     9     0.000000     0.836800     3
   NG321    CG301    CG321    CG331     9     0.000000     0.836800     3
   NG321    CG301    CG321    NG301     9   180.000000     0.209200     3
   NG321    CG301    CG321    NG311     9     0.000000     0.000000     3
   NG321    CG301    CG321    SG3O2     9   180.000000    16.903360     1
   NG321    CG301    CG321    SG3O2     9     0.000000     0.627600     2
   NG321    CG301    CG321    SG3O2     9   180.000000     1.757280     3
   NG321    CG301    CG321     HGA2     9     0.000000     0.669440     3
   NG321    CG301    CG324    NG3P2     9   180.000000     0.251040     3
   NG321    CG301    CG324     HGA2     9     0.000000     0.669440     3
   NG321    CG301    CG331     HGA3     9     0.000000     0.669440     3
   NG321    CG311    CG311    OG311     9   180.000000     1.673600     1
   NG321    CG311    CG311    OG311     9     0.000000     3.347200     3
   NG321    CG311    CG311     HGA1     9     0.000000     2.092000     3
   NG321    CG311    CG314    CG331     9     0.000000     1.673600     1
   NG321    CG311    CG314    CG331     9     0.000000     3.347200     3
   NG321    CG311    CG314    NG3P2     9     0.000000     7.489360     3
   NG321    CG311    CG314     HGA1     9     0.000000     2.092000     3
   NG321    CG311    CG321    CG311     9     0.000000     0.836800     3
   NG321    CG311    CG321    CG321     9     0.000000     0.815880     3
   NG321    CG311    CG321    NG311     9     0.000000     6.568880     3
   NG321    CG311    CG321     HGA2     9     0.000000     0.669440     3
   NG321    CG311    CG324    NG3P2     9   180.000000     1.966480     3
   NG321    CG311    CG324     HGA2     9     0.000000     0.669440     3
   NG321    CG311    CG331     HGA3     9     0.000000     0.669440     3
   NG321    CG311   CG3RC1   CG3C51     9   180.000000     0.376560     3
   NG321    CG311   CG3RC1   CG3C51     9     0.000000     4.225840     4
   NG321    CG311   CG3RC1   CG3RC1     9     0.000000     9.539520     2
   NG321    CG311   CG3RC1   CG3RC1     9     0.000000     1.422560     4
   NG321    CG311   CG3RC1     HGA1     9     0.000000     0.000000     3
   NG321    CG311   OG3C61    CG321     9   180.000000     0.000000     3
   NG321    CG311   OG3C61    CG321     9     0.000000     0.251040     6
   NG321    CG321    CG321    SG311     9     0.000000     2.510400     1
   NG321    CG321    CG321    SG311     9   180.000000     0.836800     2
   NG321    CG321    CG321    SG311     9     0.000000     1.255200     3
   NG321    CG321    CG321     HGA2     9     0.000000     0.523000     3
   NG321    CG321   CG3C51   CG3C50     9   180.000000     0.460240     3
   NG321    CG321   CG3C51   CG3C52     9     0.000000     1.129680     3
   NG321    CG321   CG3C51     HGA1     9     0.000000     0.000000     3
   NG321   CG3C31   CG3C31     HGA2     9   180.000000     0.000000     5
   NG321   CG3C31   CG3RC1   CG3C52     9     0.000000     0.000000     2
   NG321   CG3C31   CG3RC1   CG3C52     9     0.000000     0.000000     3
   NG321   CG3C31   CG3RC1   CG3RC1     9   180.000000     7.614880     3
   NG321   CG3C31   CG3RC1     HGA1     9     0.000000     0.000000     3
   NG321   CG3C41   CG3RC1   NG2R43     9     0.000000     8.828240     3
   NG321   CG3C41   CG3RC1    SG311     9     0.000000     1.129680     2
   NG321   CG3C41   CG3RC1    SG311     9     0.000000     0.502080     3
   NG321   CG3C41   CG3RC1     HGA1     9     0.000000     0.000000     3
   NG321   CG3C50   CG3C52   CG2R51     9     0.000000     4.184000     2
   NG321   CG3C50   CG3C52   CG2R51     9   180.000000     6.276000     3
   NG321   CG3C50   CG3C52   CG2R51     9   180.000000     3.054320     6
   NG321   CG3C50   CG3C52   CG2RC0     9   180.000000     2.635920     3
   NG321   CG3C50   CG3C52   CG2RC0     9   180.000000     2.803280     6
   NG321   CG3C50   CG3C52   CG3C52     9   180.000000     0.083680     2
   NG321   CG3C50   CG3C52   CG3C52     9     0.000000     1.004160     3
   NG321   CG3C50   CG3C52   NG3C51     9     0.000000     7.782240     3
   NG321   CG3C50   CG3C52     HGA2     9   180.000000     0.000000     3
   NG321   CG3C50    OG311     HGP1     9     0.000000     5.397360     1
   NG321   CG3C50    OG311     HGP1     9     0.000000     5.690240     2
   NG321   CG3C50    OG311     HGP1     9     0.000000     5.104480     3
   NG321   CG3C51   CG3C51   NG3C51     9   180.000000     2.510400     3
   NG321   CG3C51   CG3C51   NG3C51     9   180.000000     3.096160     4
   NG321   CG3C51   CG3C51   OG3C51     9     0.000000     0.836800     3
   NG321   CG3C51   CG3C51     HGA1     9     0.000000     0.815880     3
   NG321   CG3C51   CG3C52   CG2RC0     9     0.000000     7.865920     3
   NG321   CG3C51   CG3C52   CG2RC0     9   180.000000     2.426720     6
   NG321   CG3C51   CG3C52   CG3C51     9   180.000000     1.255200     3
   NG321   CG3C51   CG3C52   CG3C52     9     0.000000     7.112800     3
   NG321   CG3C51   CG3C52   CG3C54     9     0.000000     0.460240     3
   NG321   CG3C51   CG3C52   CG3C54     9   180.000000     6.485200     4
   NG321   CG3C51   CG3C52   NG3C51     9   180.000000     2.970640     3
   NG321   CG3C51   CG3C52   NG3C51     9   180.000000     2.803280     6
   NG321   CG3C51   CG3C52   OG3C51     9     0.000000     0.836800     3
   NG321   CG3C51   CG3C52     HGA2     9   180.000000     0.627600     3
   NG321   CG3C51   CG3C53   CG3C52     9     0.000000     0.000000     3
   NG321   CG3C51   CG3C53    NG3P1     9   180.000000     4.686080     3
   NG321   CG3C51   CG3C53    NG3P1     9     0.000000     2.426720     4
   NG321   CG3C51   CG3C53     HGA1     9     0.000000     0.836800     3
   NG321   CG3C51   CG3C54    NG2P1     9     0.000000     6.736240     3
   NG321   CG3C51   CG3C54    NG2P1     9   180.000000     4.225840     6
   NG321   CG3C51   CG3C54    NG3P2     9     0.000000    14.141920     3
   NG321   CG3C51   CG3C54     HGA2     9   180.000000     0.627600     3
   NG321   CG3C51   CG3RC1    CG311     9   180.000000     5.230000     3
   NG321   CG3C51   CG3RC1    CG311     9   180.000000     0.292880     6
   NG321   CG3C51   CG3RC1   CG3RC1     9   180.000000     3.347200     4
   NG321   CG3C51   CG3RC1   CG3RC1     9     0.000000     2.092000     6
   NG321   CG3C51   CG3RC1     HGA1     9     0.000000     0.836800     3
   NG321   CG3RC1   CG3RC1     HGA1     9     0.000000     0.000000     1
   NG321   CG3RC1   CG3RC1     HGA1     9     0.000000     0.000000     2
   NG321   CG3RC1   CG3RC1     HGA1     9     0.000000     0.000000     3
   OG312   CG2D1O   CG2D1O     HGA4     9     0.000000     0.209200     2
   OG312   CG2D1O   CG2DC1    CG2O1     9   180.000000     8.995600     2
   OG312   CG2D1O   CG2DC1    CG2O5     9   180.000000     8.995600     2
   OG312   CG2D1O   CG2DC1    CG311     9   180.000000    19.664800     2
   OG312   CG2D1O   CG2DC1    CG321     9   180.000000     6.610720     2
   OG312   CG2D1O   CG2DC1     HGA4     9   180.000000    10.165028     2
   OG312   CG2D1O    CG2O3    OG2D2     9   180.000000     0.920480     2
   OG312   CG2D1O    CG2O5   CG2DC1     9   180.000000     1.533854     2
   OG312   CG2D1O    CG2O5    OG2D3     9   180.000000     1.677784     2
   OG312   CG2D1O   CG2R51   CG2R51     9     0.000000     0.000000     2
   OG312   CG2D1O   CG2R51   SG2R50     9   180.000000    13.179600     2
   OG312   CG2D1O   CG2R51   SG2R50     9   180.000000     0.000000     4
   OG312   CG2D1O   CG2R61   CG2R61     9   180.000000     7.322000     2
   OG312   CG2D1O   CG2R61   CG2R61     9   180.000000     1.506240     6
   OG312   CG2D2O   CG2D2O     HGA4     9     0.000000     0.209200     2
   OG312   CG2D2O   CG2DC2    CG2O1     9   180.000000     8.995600     2
   OG312   CG2D2O   CG2DC2    CG2O5     9   180.000000     8.995600     2
   OG312   CG2D2O   CG2DC2    CG311     9   180.000000    19.664800     2
   OG312   CG2D2O   CG2DC2    CG321     9   180.000000     6.610720     2
   OG312   CG2D2O   CG2DC2     HGA4     9   180.000000    10.165028     2
   OG312   CG2D2O    CG2O3    OG2D2     9   180.000000     0.920480     2
   OG312   CG2D2O    CG2O5   CG2DC2     9   180.000000     1.533854     2
   OG312   CG2D2O    CG2O5    OG2D3     9   180.000000     1.677784     2
   OG312   CG2D2O   CG2R51   CG2R51     9     0.000000     0.000000     2
   OG312   CG2D2O   CG2R51   SG2R50     9   180.000000    13.179600     2
   OG312   CG2D2O   CG2R51   SG2R50     9   180.000000     0.000000     4
   OG312   CG2D2O   CG2R61   CG2R61     9   180.000000     7.322000     2
   OG312   CG2D2O   CG2R61   CG2R61     9   180.000000     1.506240     6
   OG312   CG2R51   CG2R51   SG2R50     9   180.000000    19.790320     2
   OG312   CG2R51   CG2R51    HGR52     9     0.000000    11.213120     2
   OG312   CG2R51   CG3C52   OG3C51     9     0.000000     0.000000     2
   OG312   CG2R51   CG3C52   OG3C51     9     0.000000     0.334720     3
   OG312   CG2R51   CG3C52     HGA2     9   180.000000     0.000000     3
   OG312   CG2R51   NG2R51   CG2R53     9   180.000000     0.017154     2
   OG312   CG2R51   NG2R51    CG321     9   180.000000     0.204179     2
   OG312   CG2R51   NG2R51   NG2R50     9   180.000000     7.070960     2
   OG312   CG2R53   NG2R50   CG2R53     9   180.000000    10.752880     2
   OG312   CG2R53   NG3C51    CG331     9   180.000000    16.275760     2
   OG312   CG2R53   NG3C51   CG3C52     9   180.000000     8.451680     2
   OG312   CG2R61   CG2R61    HGR61     9   180.000000    10.041600     2
   OG312   CG2R61   CG2R62   CG2R62     9   180.000000    12.970400     2
   OG312   CG2R61   CG2R62   NG2R61     9   180.000000     4.142160     2
   OG312   CG2R61   CG2R64    NG2O1     9   180.000000    19.413760     2
   OG312   CG2R61   CG2R64   NG2R60     9     0.000000     0.000000     2
   OG312   CG2R61   CG2R66   CG2R61     9   180.000000    12.970400     2
   OG312   CG2R61   CG2R66     FGR1     9   180.000000    13.305120     2
   OG312   CG2R61   CG2R67   CG2R61     9     0.000000     1.715440     2
   OG312   CG2R61   CG2R67   NG2R67     9   180.000000    22.677280     2
   OG312   CG2R61   CG2RC0   CG2R52     9   180.000000    13.012240     2
   OG312   CG2R61   CG2RC0   CG2RC0     9     0.000000     0.000000     2
   OG312   CG2R61   NG2R61   NG2R62     9   180.000000     9.665040     2
   OG312   CG2R61   NG2R61     HGP1     9   180.000000     5.439200     2
   OG312   CG2R62   CG2R62    HGR63     9   180.000000    10.627360     2
   OG312   CG2R62   CG2R63   NG2R61     9   180.000000     1.422560     2
   OG312   CG2R62   CG2R63    OG2D4     9     0.000000     0.000000     2
   OG312   CG2R62   NG2R61   CG2R64     9   180.000000    12.300960     2
   OG312   CG2R62   NG2R61     HGP1     9   180.000000     5.230000     2
   OG312   CG2R62   NG2R62   NG2R62     9   180.000000    21.673120     2
   OG312    CG311    OG311     HGP1     9     0.000000     1.171520     3
   OG312    CG321    CG331     HGA3     9     0.000000     0.669440     3
  NG2R61   CG2D1O    CG2D2     HGA5     9   180.000000    23.472240     2
  NG2R61    CG2N1    NG2P1     HGP2     9     0.000000     0.083680     2
  NG2R61    CG2O1    CG311    CG2O1     9     0.000000     0.000000     1
  NG2R61    CG2O1    CG311    CG2O1     9   180.000000     3.263520     2
  NG2R61    CG2O1    CG311    CG2O1     9   180.000000     0.083680     3
  NG2R61    CG2O1    CG311    CG2O1     9     0.000000     2.970640     4
  NG2R61    CG2O1    CG311    CG331     9     0.000000     0.000000     1
  NG2R61    CG2O1    CG311     HGA1     9     0.000000     0.000000     1
  NG2R61   CG2R51   CG2R51    HGR52     9   180.000000     4.937120     2
  NG2R61   CG2R51   NG2R51   CG2R53     9     0.000000     5.481040     2
  NG2R61   CG2R51   NG2R51   CG2RC0     9   180.000000    14.727680     2
  NG2R61   CG2R51   NG2R51    CG331     9     0.000000     1.380720     2
  NG2R61   CG2R51   NG2R51     HGP1     9   180.000000     0.167360     2
  NG2R61   CG2R51   NG2R51     HGP1     9     0.000000     1.589920     4
  NG2R61   CG2R53   NG2R50   CG2R51     9   180.000000    29.915600     2
  NG2R61   CG2R53   SG2R50   CG2R51     9   180.000000     8.033280     2
  NG2R61   CG2R61   CG2R61   NG2R61     9     0.000000     0.209200     2
  NG2R61   CG2R61   CG2R61   NG2RC0     9   180.000000    17.949360     2
  NG2R61   CG2R61   CG2R61    NG2S3     9   180.000000    11.213120     2
  NG2R61   CG2R61   CG2R61    OG301     9   180.000000     0.711280     2
  NG2R61   CG2R61   CG2R61    OG311     9   180.000000     8.116960     2
  NG2R61   CG2R61   CG2R61    HGR61     9   180.000000     3.347200     2
  NG2R61   CG2R61   CG2R61    HGR62     9   180.000000     3.347200     2
  NG2R61   CG2R61   CG2RC0   CG2R52     9     0.000000     0.000000     2
  NG2R61   CG2R61   CG2RC0   CG2RC0     9     0.000000     2.635920     2
  NG2R61   CG2R61    CG331     HGA3     9   180.000000     0.000000     6
  NG2R61   CG2R62   CG2R62   NG2R61     9   180.000000    15.271600     2
  NG2R61   CG2R62   CG2R62   NG2R62     9   180.000000     3.598240     2
  NG2R61   CG2R62   CG2R62    NG2S1     9   180.000000    19.037200     2
  NG2R61   CG2R62   CG2R62    NG2S3     9   180.000000     5.983120     2
  NG2R61   CG2R62   CG2R62    NG311     9     0.000000     0.041840     2
  NG2R61   CG2R62   CG2R62   NG3C51     9   180.000000    32.928080     2
  NG2R61   CG2R62   CG2R62    OG301     9   180.000000     6.694400     2
  NG2R61   CG2R62   CG2R62    OG311     9   180.000000    12.552000     2
  NG2R61   CG2R62   CG2R62    OG312     9   180.000000     9.999760     2
  NG2R61   CG2R62   CG2R62    SG302     9   180.000000     7.656720     2
  NG2R61   CG2R62   CG2R62    SG3O2     9   180.000000    17.823840     2
  NG2R61   CG2R62   CG2R62    HGR62     9   180.000000    14.225600     2
  NG2R61   CG2R62   CG2R62    HGR63     9   180.000000    29.288000     2
  NG2R61   CG2R62   CG2R62     CN7B     9   180.000000    46.024000     2
  NG2R61   CG2R62   CG2R63   NG2R61     9   180.000000     0.000000     2
  NG2R61   CG2R62   CG2R63    OG2D4     9   180.000000     8.075120     2
  NG2R61   CG2R62   CG2R64   NG2R61     9   180.000000    20.836320     2
  NG2R61   CG2R62   CG2R64   NG2R62     9   180.000000     2.719600     2
  NG2R61   CG2R62   CG2R66   CG2R63     9   180.000000    29.288000     2
  NG2R61   CG2R62   CG2R66     FGR1     9   180.000000    37.070240     2
  NG2R61   CG2R62   CG2R67   CG2R62     9   180.000000     5.020800     2
  NG2R61   CG2R62   CG2R67   CG2R67     9   180.000000     4.184000     2
  NG2R61   CG2R62   CG2RC0   CG2R53     9   180.000000    14.811360     2
  NG2R61   CG2R62   CG2RC0   CG2R67     9     0.000000     0.000000     2
  NG2R61   CG2R62   CG2RC0   CG2RC0     9   180.000000    13.179600     2
  NG2R61   CG2R62   CG2RC0   NG2R51     9   180.000000    24.727440     2
  NG2R61   CG2R62    CG301    CG331     9     0.000000     0.418400     2
  NG2R61   CG2R62    CG301    CG331     9   180.000000     0.251040     6
  NG2R61   CG2R62    CG302     FGA3     9     0.000000     0.000000     2
  NG2R61   CG2R62    CG302     FGA3     9     0.000000     0.000000     6
  NG2R61   CG2R62    CG311   CG2R61     9   180.000000     0.083680     2
  NG2R61   CG2R62    CG311   CG2R61     9     0.000000     0.167360     3
  NG2R61   CG2R62    CG311    CG311     9   180.000000     0.000000     2
  NG2R61   CG2R62    CG311    CG311     9   180.000000     0.083680     3
  NG2R61   CG2R62    CG311    CG321     9     0.000000     3.849280     2
  NG2R61   CG2R62    CG311    CG321     9     0.000000     0.836800     6
  NG2R61   CG2R62    CG311    CG331     9     0.000000     1.255200     1
  NG2R61   CG2R62    CG311    CG331     9   180.000000     0.167360     2
  NG2R61   CG2R62    CG311    CG331     9     0.000000     0.251040     6
  NG2R61   CG2R62    CG311     HGA1     9     0.000000     0.000000     6
  NG2R61   CG2R62    CG321    CG321     9     0.000000     3.472720     2
  NG2R61   CG2R62    CG321    NG321     9   180.000000     2.928800     2
  NG2R61   CG2R62    CG321    NG321     9     0.000000     8.660880     3
  NG2R61   CG2R62    CG321     HGA2     9     0.000000     0.000000     6
  NG2R61   CG2R62    CG324    NG3P3     9     0.000000     3.430880     2
  NG2R61   CG2R62    CG324    NG3P3     9     0.000000     0.167360     3
  NG2R61   CG2R62    CG324     HGA2     9     0.000000     0.000000     6
  NG2R61   CG2R62    CG331     HGA3     9   180.000000     0.000000     6
  NG2R61   CG2R62   CG3C31   CG3C31     9     0.000000     3.765600     1
  NG2R61   CG2R62   CG3C31   CG3C31     9     0.000000     3.096160     2
  NG2R61   CG2R62   CG3C31   CG3C31     9   180.000000     2.677760     4
  NG2R61   CG2R62   CG3C31     HGA1     9   180.000000     0.000000     1
  NG2R61   CG2R62   CG3C31     HGA1     9     0.000000     0.000000     2
  NG2R61   CG2R62   CG3C51   CG3C52     9     0.000000     0.292880     2
  NG2R61   CG2R62   CG3C51   CG3C52     9     0.000000     6.485200     3
  NG2R61   CG2R62   CG3C51   CG3C54     9   180.000000     7.196480     2
  NG2R61   CG2R62   CG3C51   CG3C54     9   180.000000     2.594080     3
  NG2R61   CG2R62   CG3C51     HGA1     9     0.000000     0.000000     6
  NG2R61   CG2R62    NG2D1    CG2N2     9   180.000000     4.686080     1
  NG2R61   CG2R62    NG2D1    CG2N2     9   180.000000    12.384640     2
  NG2R61   CG2R62    NG2D1    CG2N2     9     0.000000     3.598240     3
  NG2R61   CG2R62    NG2D1   CG2R64     9   180.000000    32.928080     2
  NG2R61   CG2R62    NG2D1   CG2R64     9     0.000000     0.000000     3
  NG2R61   CG2R62    NG2O1   CG2R62     9   180.000000    28.660400     2
  NG2R61   CG2R62    NG2P1    CG324     9   180.000000     6.527040     2
  NG2R61   CG2R62    NG2P1     HGP2     9   180.000000     4.560560     2
  NG2R61   CG2R62   NG2R51   CG2R51     9   180.000000     3.765600     2
  NG2R61   CG2R62   NG2R51   CG2R51     9   180.000000     2.217520     6
  NG2R61   CG2R62   NG2R52   CG3C54     9   180.000000     6.150480     2
  NG2R61   CG2R62   NG2R62   CG2R62     9   180.000000    12.552000     2
  NG2R61   CG2R62    NG2S3     HGP4     9   180.000000     9.706880     2
  NG2R61   CG2R62    NG301    CG321     9     0.000000     1.213360     2
  NG2R61   CG2R62    NG301    CG331     9     0.000000     4.016640     1
  NG2R61   CG2R62    NG301    CG331     9     0.000000     0.920480     2
  NG2R61   CG2R62    NG301    CG331     9   180.000000     7.447520     4
  NG2R61   CG2R62    NG311   CG2R61     9     0.000000     0.083680     2
  NG2R61   CG2R62    NG311   HGPAM1     9   180.000000     6.108640     2
  NG2R61   CG2R62    NG3N1    NG3N1     9   180.000000    15.941040     1
  NG2R61   CG2R62    NG3N1    NG3N1     9   180.000000    26.903120     2
  NG2R61   CG2R62    NG3N1     HGP1     9   180.000000    10.041600     2
  NG2R61   CG2R62    OG311     HGP1     9     0.000000     0.669440     1
  NG2R61   CG2R62    OG311     HGP1     9   180.000000     2.301200     2
  NG2R61   CG2R62    OG311     HGP1     9     0.000000     0.920480     3
  NG2R61   CG2R62   OG3R60    CG321     9     0.000000     0.000000     2
  NG2R61   CG2R62   OG3R60    CG321     9   180.000000     1.589920     4
  NG2R61   CG2R62    SG311    CG321     9     0.000000    10.501840     1
  NG2R61   CG2R62    SG311    CG321     9   180.000000     0.753120     2
  NG2R61   CG2R63   CG2R63   NG2R61     9     0.000000     8.368000     2
  NG2R61   CG2R63   CG2R63    OG2D4     9     0.000000     0.836800     2
  NG2R61   CG2R63   CG2R63    SG2D1     9     0.000000     0.000000     2
  NG2R61   CG2R63   CG2R64   NG2R60     9     0.000000     3.096160     2
  NG2R61   CG2R63   CG2R64    NG2S3     9     0.000000     0.920480     2
  NG2R61   CG2R63   CG2R64    NG301     9   180.000000    16.736000     2
  NG2R61   CG2R63   CG2R64   NG3C51     9   180.000000    16.736000     2
  NG2R61   CG2R63   CG2R66   CG2R61     9   180.000000     2.092000     2
  NG2R61   CG2R63   CG2R66     FGR1     9   180.000000    11.338640     2
  NG2R61   CG2R63   CG2RC0   CG2R51     9   180.000000     0.836800     2
  NG2R61   CG2R63   CG2RC0   CG2RC0     9   180.000000     0.836800     2
  NG2R61   CG2R63   CG2RC0   CG3C54     9     0.000000     0.000000     2
  NG2R61   CG2R63   CG2RC0   NG2R50     9   180.000000     8.368000     2
  NG2R61   CG2R63   CG2RC0   NG2R51     9   180.000000    16.568640     2
  NG2R61   CG2R63   CG2RC0   NG2R52     9   180.000000     8.368000     2
  NG2R61   CG2R63   CG2RC0   NG2RC0     9     0.000000     0.000000     2
  NG2R61   CG2R63   CG2RC0   SG2R50     9     0.000000     0.292880     2
  NG2R61   CG2R63    NG2P1   CG2R64     9   180.000000     2.510400     2
  NG2R61   CG2R63    NG2P1    CG334     9   180.000000    15.271600     2
  NG2R61   CG2R63    NG2P1     HGP2     9   180.000000    10.250800     2
  NG2R61   CG2R63   NG2R52   CG2RC0     9     0.000000    19.748480     2
  NG2R61   CG2R63   NG2R52   CG3C54     9     0.000000     0.376560     2
  NG2R61   CG2R63   NG2R61   CG2R61     9   180.000000     2.092000     2
  NG2R61   CG2R63   NG2R61   CG2R62     9   180.000000     6.276000     2
  NG2R61   CG2R63   NG2R61   CG2R63     9   180.000000    12.552000     2
  NG2R61   CG2R63   NG2R61   CG2R64     9   180.000000    12.552000     2
  NG2R61   CG2R63   NG2R61   CG2RC0     9     0.000000     2.761440     2
  NG2R61   CG2R63   NG2R61    CG311     9   180.000000    23.012000     2
  NG2R61   CG2R63   NG2R61    CG321     9   180.000000    23.012000     2
  NG2R61   CG2R63   NG2R61    CG331     9   180.000000    46.024000     2
  NG2R61   CG2R63   NG2R61   CG3C51     9   180.000000    46.024000     2
  NG2R61   CG2R63   NG2R61   CG3RC1     9   180.000000     4.184000     2
  NG2R61   CG2R63   NG2R61    NG2O1     9   180.000000     6.485200     2
  NG2R61   CG2R63   NG2R61    OG312     9     0.000000     0.000000     2
  NG2R61   CG2R63   NG2R61     HGP1     9   180.000000    13.807200     2
  NG2R61   CG2R63   NG2R61     CN7B     9   180.000000    46.024000     2
  NG2R61   CG2R63   NG2R62   CG2R61     9   180.000000     2.510400     2
  NG2R61   CG2R63   NG2R62   CG2R62     9   180.000000     2.510400     2
  NG2R61   CG2R63   NG2R62   CG2R64     9   180.000000     2.510400     2
  NG2R61   CG2R63   NG2R62   CG2RC0     9   180.000000     2.510400     2
  NG2R61   CG2R63   NG2R62   NG2R62     9     0.000000     0.000000     2
  NG2R61   CG2R63   NG2R67   CG2R62     9   180.000000    12.552000     2
  NG2R61   CG2R63   NG2R67   CG2R63     9   180.000000    12.552000     2
  NG2R61   CG2R63   NG2R67   CG2R67     9   180.000000    46.024000     2
  NG2R61   CG2R63   NG2R67   CG2RC0     9     0.000000     3.598240     2
  NG2R61   CG2R63   OG3R60   CG2R62     9   180.000000     9.999760     2
  NG2R61   CG2R63    SG311   CG2R62     9   180.000000     2.594080     2
  NG2R61   CG2R63   CG2R62     CN7B     9   180.000000    46.024000     2
  NG2R61   CG2R64   CG2R64   NG2R61     9     0.000000    15.438960     2
  NG2R61   CG2R64   CG2R64   NG2R62     9   180.000000    27.572560     2
  NG2R61   CG2R64   CG2R66   CG2R61     9     0.000000     0.376560     2
  NG2R61   CG2R64   CG2R66     FGR1     9   180.000000    22.677280     2
  NG2R61   CG2R64   CG2RC0   CG2RC0     9   180.000000     7.531200     2
  NG2R61   CG2R64   CG2RC0   CG3C52     9     0.000000     9.957920     2
  NG2R61   CG2R64   CG2RC0   NG2R50     9   180.000000     8.368000     2
  NG2R61   CG2R64    CG301    CG331     9     0.000000     4.686080     2
  NG2R61   CG2R64    CG301    CG331     9   180.000000     0.627600     6
  NG2R61   CG2R64    CG301    NG321     9   180.000000     5.690240     2
  NG2R61   CG2R64    CG301    NG321     9     0.000000     2.845120     6
  NG2R61   CG2R64    CG302     FGA3     9     0.000000     0.000000     2
  NG2R61   CG2R64    CG302     FGA3     9     0.000000     0.292880     6
  NG2R61   CG2R64    CG311    CG331     9     0.000000     2.384880     2
  NG2R61   CG2R64    CG311    CG331     9     0.000000     7.196480     3
  NG2R61   CG2R64    CG311    OG311     9   180.000000     8.451680     2
  NG2R61   CG2R64    CG311    OG311     9     0.000000     0.460240     3
  NG2R61   CG2R64    CG311     HGA1     9   180.000000     0.000000     6
  NG2R61   CG2R64    CG321    NG311     9   180.000000     1.966480     2
  NG2R61   CG2R64    CG321    NG311     9   180.000000     5.397360     3
  NG2R61   CG2R64    CG321    NG321     9   180.000000     1.464400     2
  NG2R61   CG2R64    CG321    NG321     9     0.000000     2.677760     3
  NG2R61   CG2R64    CG321     HGA2     9   180.000000     0.000000     3
  NG2R61   CG2R64    CG321     HGA2     9   180.000000     0.000000     6
  NG2R61   CG2R64    CG324    NG3P3     9   180.000000    14.434800     2
  NG2R61   CG2R64    CG324    NG3P3     9   180.000000     2.677760     3
  NG2R61   CG2R64    CG324     HGA2     9   180.000000     0.000000     6
  NG2R61   CG2R64    CG331     HGA3     9   180.000000     0.000000     6
  NG2R61   CG2R64   CG3C31   CG3C31     9     0.000000     3.807440     1
  NG2R61   CG2R64   CG3C31   CG3C31     9   180.000000     7.070960     2
  NG2R61   CG2R64   CG3C31   CG3C31     9   180.000000     0.794960     6
  NG2R61   CG2R64   CG3C31     HGA1     9   180.000000     0.000000     1
  NG2R61   CG2R64   CG3C31     HGA1     9     0.000000     0.000000     2
  NG2R61   CG2R64   CG3C51   CG3C52     9   180.000000     1.422560     1
  NG2R61   CG2R64   CG3C51   CG3C52     9     0.000000     1.213360     2
  NG2R61   CG2R64   CG3C51   CG3C52     9   180.000000     3.472720     3
  NG2R61   CG2R64   CG3C51   CG3C52     9     0.000000     0.669440     4
  NG2R61   CG2R64   CG3C51    SG311     9     0.000000     0.167360     1
  NG2R61   CG2R64   CG3C51    SG311     9   180.000000     0.711280     2
  NG2R61   CG2R64   CG3C51    SG311     9     0.000000     6.652560     3
  NG2R61   CG2R64   CG3C51     HGA1     9     0.000000     0.000000     1
  NG2R61   CG2R64   CG3C51     HGA1     9     0.000000     0.000000     2
  NG2R61   CG2R64   CG3C51     HGA1     9     0.000000     0.000000     3
  NG2R61   CG2R64   CG3C53   CG3C52     9     0.000000     2.050160     2
  NG2R61   CG2R64   CG3C53    NG3P2     9   180.000000    11.422320     2
  NG2R61   CG2R64   CG3C53     HGA1     9   180.000000     0.000000     6
  NG2R61   CG2R64    NG2D1   CG2D1O     9     0.000000     0.000000     1
  NG2R61   CG2R64    NG2D1   CG2D1O     9   180.000000    22.551760     2
  NG2R61   CG2R64    NG2D1   CG2D1O     9     0.000000     0.000000     3
  NG2R61   CG2R64    NG2D1   CG2D2O     9     0.000000     0.000000     1
  NG2R61   CG2R64    NG2D1   CG2D2O     9   180.000000    22.551760     2
  NG2R61   CG2R64    NG2D1   CG2D2O     9     0.000000     0.000000     3
  NG2R61   CG2R64    NG2D1    CG2O1     9   180.000000     3.347200     1
  NG2R61   CG2R64    NG2D1    CG2O1     9   180.000000    20.166880     2
  NG2R61   CG2R64    NG2D1    CG2O1     9   180.000000     0.083680     3
  NG2R61   CG2R64    NG2D1    CG2O6     9   180.000000     3.347200     1
  NG2R61   CG2R64    NG2D1    CG2O6     9   180.000000    20.166880     2
  NG2R61   CG2R64    NG2D1    CG2O6     9   180.000000     0.083680     3
  NG2R61   CG2R64    NG2D1   CG2R62     9   180.000000    23.263040     2
  NG2R61   CG2R64    NG2D1   CG2R62     9     0.000000     0.627600     3
  NG2R61   CG2R64    NG2D1    CG311     9     0.000000     0.209200     1
  NG2R61   CG2R64    NG2D1    CG311     9   180.000000    23.848800     2
  NG2R61   CG2R64    NG2D1    CG311     9     0.000000     9.665040     3
  NG2R61   CG2R64    NG2D1    CG321     9     0.000000     0.000000     1
  NG2R61   CG2R64    NG2D1    CG321     9   180.000000    22.719120     2
  NG2R61   CG2R64    NG2D1    CG321     9   180.000000     0.000000     3
  NG2R61   CG2R64    NG2D1    CG331     9     0.000000     0.502080     1
  NG2R61   CG2R64    NG2D1    CG331     9   180.000000     3.723760     2
  NG2R61   CG2R64    NG2D1    CG331     9     0.000000     7.949600     3
  NG2R61   CG2R64    NG2D1    NG3N1     9     0.000000     0.711280     1
  NG2R61   CG2R64    NG2D1    NG3N1     9   180.000000    23.723280     2
  NG2R61   CG2R64    NG2D1    NG3N1     9     0.000000     1.589920     3
  NG2R61   CG2R64    NG2D1     HGP1     9     0.000000     6.694400     1
  NG2R61   CG2R64    NG2D1     HGP1     9   180.000000    28.660400     2
  NG2R61   CG2R64    NG2P1   CG3C54     9   180.000000     3.556400     2
  NG2R61   CG2R64    NG2P1   CG3C54     9     0.000000     0.920480     3
  NG2R61   CG2R64    NG2P1     HGP2     9   180.000000    10.250800     2
  NG2R61   CG2R64   NG2R61   CG2R64     9   180.000000     5.773920     2
  NG2R61   CG2R64   NG2R61     HGP2     9   180.000000    12.091760     2
  NG2R61   CG2R64   NG2R62   CG2R61     9   180.000000     8.368000     2
  NG2R61   CG2R64   NG2R62   CG2R62     9   180.000000    16.736000     2
  NG2R61   CG2R64   NG2R62   CG2R63     9   180.000000    13.388800     2
  NG2R61   CG2R64   NG2R62   CG2R64     9   180.000000     8.368000     2
  NG2R61   CG2R64   NG2R62   CG2RC0     9   180.000000     8.368000     2
  NG2R61   CG2R64    NG2S1    CG2O1     9     0.000000     1.631760     1
  NG2R61   CG2R64    NG2S1    CG2O1     9     0.000000     0.000000     2
  NG2R61   CG2R64    NG2S1    CG2O1     9   180.000000     0.627600     3
  NG2R61   CG2R64    NG2S1     HGP1     9   180.000000     5.481040     2
  NG2R61   CG2R64    NG2S3     HGP4     9   180.000000     5.020800     2
  NG2R61   CG2R64    NG301   CG2R61     9   180.000000     0.376560     2
  NG2R61   CG2R64    NG301    CG321     9     0.000000     1.757280     2
  NG2R61   CG2R64    NG301    CG331     9     0.000000    11.715200     1
  NG2R61   CG2R64    NG301    CG331     9     0.000000     2.175680     2
  NG2R61   CG2R64    NG301    CG331     9     0.000000     0.041840     4
  NG2R61   CG2R64    NG311    CG311     9   180.000000    11.715200     2
  NG2R61   CG2R64    NG311    CG321     9   180.000000    11.715200     2
  NG2R61   CG2R64    NG311    CG331     9     0.000000     5.020800     1
  NG2R61   CG2R64    NG311    CG331     9   180.000000     5.439200     2
  NG2R61   CG2R64    NG311    OG311     9   180.000000     2.886960     2
  NG2R61   CG2R64    NG311    OG311     9     0.000000     7.865920     3
  NG2R61   CG2R64    NG311     HGP1     9   180.000000     8.368000     2
  NG2R61   CG2R64    NG311   HGPAM1     9   180.000000     8.368000     2
  NG2R61   CG2R64   NG3C51   CG2RC0     9   180.000000     9.497680     2
  NG2R61   CG2R64   NG3C51   CG3C52     9   180.000000     3.891120     2
  NG2R61   CG2R64    OG301    CG331     9   180.000000    12.049920     2
  NG2R61   CG2R64    OG301    CG331     9   180.000000     4.393200     4
  NG2R61   CG2R64    SG311   CG2R61     9     0.000000     0.041840     2
  NG2R61   CG2R64    SG311   CG2R61     9     0.000000     3.389040     4
  NG2R61   CG2R64    SG311    CG321     9     0.000000     6.066800     1
  NG2R61   CG2R64    SG311    CG331     9     0.000000     6.066800     1
  NG2R61   CG2R67   CG2R67   NG2R61     9   180.000000     3.723760     1
  NG2R61   CG2R67   CG2R67   NG2R61     9   180.000000     2.552240     2
  NG2R61   CG2R67   CG2R67   NG2R61     9   180.000000     0.083680     3
  NG2R61   CG2R67   CG2R67   NG2R61     9   180.000000     2.343040     4
  NG2R61   CG2R67   CG2R67   NG2R61     9     0.000000     0.669440     6
  NG2R61   CG2RC0   CG2RC0   NG3C51     9   180.000000     1.297040     2
  NG2R61   CG2RC0   CG3C51    CG2O3     9   180.000000    15.020560     2
  NG2R61   CG2RC0   CG3C51    CG2O3     9   180.000000     0.000000     3
  NG2R61   CG2RC0   CG3C51   CG3C52     9   180.000000    21.422080     2
  NG2R61   CG2RC0   CG3C51     HGA1     9   180.000000     0.000000     3
  NG2R61   CG2RC0   CG3C52   CG3C52     9   180.000000    16.233920     2
  NG2R61   CG2RC0   CG3C52     HGA2     9   180.000000     0.000000     3
  NG2R61   CG2RC0   NG2R50   CG2R51     9   180.000000     8.368000     2
  NG2R61   CG2RC0   NG2R50   CG2R53     9   180.000000    35.020080     2
  NG2R61   CG2RC0   NG2R50   CG3C52     9   180.000000     8.660880     2
  NG2R61   CG2RC0   NG2R50   NG2R50     9   180.000000    15.438960     2
  NG2R61   CG2RC0   NG2R51   CG2R51     9   180.000000     8.368000     2
  NG2R61   CG2RC0   NG2R51   CG2R53     9   180.000000     8.368000     2
  NG2R61   CG2RC0   NG2R51    CG331     9   180.000000    46.024000     2
  NG2R61   CG2RC0   NG2R51   NG2R50     9     0.000000     0.000000     2
  NG2R61   CG2RC0   NG2R51     HGP1     9   180.000000     2.928800     2
  NG2R61   CG2RC0   NG2R51     CN7B     9   180.000000    31.380000     2
  NG2R61   CG2RC0   NG2R52   CG3C53     9   180.000000    37.195760     2
  NG2R61   CG2RC0   NG2R52     HGP2     9     0.000000     2.635920     2
  NG2R61   CG2RC0   NG2R61   CG2R62     9     0.000000     7.656720     2
  NG2R61   CG2RC0   NG2R61   CG2R63     9   180.000000     3.598240     2
  NG2R61   CG2RC0   NG2R61    CG331     9     0.000000     2.217520     2
  NG2R61   CG2RC0   NG2R61   CG3C52     9   180.000000     5.690240     2
  NG2R61   CG2RC0   NG2R62   CG2R61     9   180.000000    18.033040     2
  NG2R61   CG2RC0   NG2R62   CG2R62     9   180.000000    26.526560     2
  NG2R61   CG2RC0   NG2R62   NG2R62     9   180.000000     9.706880     2
  NG2R61   CG2RC0   NG2RC0   CG2R51     9   180.000000    30.543200     2
  NG2R61   CG2RC0   NG2RC0   CG2R53     9   180.000000    30.543200     2
  NG2R61   CG2RC0   NG2RC0   CG2R62     9   180.000000     2.510400     2
  NG2R61   CG2RC0   NG2RC0   CG2R63     9   180.000000     2.510400     2
  NG2R61   CG2RC0   NG2RC0   CG3C54     9   180.000000    16.568640     2
  NG2R61   CG2RC0   NG2RC0   NG2R62     9     0.000000     0.000000     2
  NG2R61   CG2RC0   NG3C51   CG2R61     9   180.000000     7.070960     2
  NG2R61   CG2RC0   NG3C51   CG3C52     9     0.000000     0.000000     2
  NG2R61   CG2RC0   NG3C51     HGP1     9   180.000000    19.874000     2
  NG2R61   CG2RC0   NG3C51     HGP1     9     0.000000     8.828240     3
  NG2R61   CG2RC0   SG2R50   CG2R51     9   180.000000    24.894800     2
  NG2R61   CG2RC0    SG311   CG3C52     9   180.000000     0.167360     1
  NG2R61   CG2RC0    SG311   CG3C52     9   180.000000     6.108640     2
  NG2R61    CG301    CG331     HGA3     9     0.000000     0.836800     3
  NG2R61    CG311    CG321    CG2O1     9     0.000000     0.836800     3
  NG2R61    CG311    CG321    CG321     9     0.000000     0.836800     3
  NG2R61    CG311    CG321    NG311     9   180.000000     0.251040     1
  NG2R61    CG311    CG321    NG311     9     0.000000     3.179840     4
  NG2R61    CG311    CG321     HGA2     9     0.000000     0.836800     3
  NG2R61    CG311    CG324    NG3P2     9     0.000000     0.836800     3
  NG2R61    CG311    CG324     HGA2     9     0.000000     0.836800     3
  NG2R61    CG311    CG331     HGA3     9     0.000000     0.836800     3
  NG2R61    CG311   OG3C61    CG321     9   180.000000     0.836800     1
  NG2R61    CG311   OG3C61    CG321     9     0.000000     1.840960     2
  NG2R61    CG311   OG3C61    CG321     9   180.000000     0.334720     3
  NG2R61    CG311   OG3C61    CG321     9     0.000000     0.376560     4
  NG2R61    CG314    CG321    CG311     9     0.000000     0.836800     3
  NG2R61    CG314    CG321     HGA2     9     0.000000     0.836800     3
  NG2R61    CG314    CG331     HGA3     9     0.000000     0.836800     3
  NG2R61    CG321    CG321     HGA2     9     0.000000     0.418400     3
  NG2R61    CG321    CG331     HGA3     9     0.000000     0.543920     3
  NG2R61    CG321    OG311     HGP1     9     0.000000     3.598240     1
  NG2R61    CG321    OG311     HGP1     9     0.000000     7.196480     2
  NG2R61    CG321    OG311     HGP1     9   180.000000     1.255200     3
  NG2R61    CG324    CG331     HGA3     9     0.000000     0.543920     3
  NG2R61    CG324   NG2R61   CG2R61     9   180.000000     7.154640     1
  NG2R61    CG324   NG2R61   CG2R61     9     0.000000     0.000000     2
  NG2R61    CG324   NG2R61   CG2R62     9     0.000000     0.000000     1
  NG2R61    CG324   NG2R61   CG2R62     9     0.000000     1.422560     2
  NG2R61    CG324   NG2R61   CG2R64     9     0.000000    13.514320     2
  NG2R61   CG3C51   CG3C51    OG311     9     0.000000     0.000000     3
  NG2R61   CG3C51   CG3C51     HGA1     9     0.000000     0.815880     3
  NG2R61   CG3C51   CG3C52   CG3C51     9     0.000000     0.000000     3
  NG2R61   CG3C51   CG3C52   CG3C52     9     0.000000     0.000000     3
  NG2R61   CG3C51   CG3C52    SG311     9   180.000000     3.389040     2
  NG2R61   CG3C51   CG3C52     HGA2     9     0.000000     0.000000     3
  NG2R61   CG3C51   CG3RC1   CG3C31     9     0.000000     0.627600     3
  NG2R61   CG3C51   CG3RC1   CG3RC1     9     0.000000     0.627600     3
  NG2R61   CG3C51   CG3RC1     HGA1     9     0.000000     0.627600     3
  NG2R61   CG3C51   OG3C51   CG3C51     9     0.000000     0.000000     3
  NG2R61   CG3C51   OG3C51   CG3C52     9     0.000000     0.000000     3
  NG2R61   CG3C52   CG3C52   NG3C51     9   180.000000     5.815760     3
  NG2R61   CG3C52   CG3C52   NG3C51     9     0.000000     9.288480     4
  NG2R61   CG3C52   CG3C52    SG311     9   180.000000     3.389040     2
  NG2R61   CG3C52   CG3C52     HGA2     9     0.000000     0.585760     3
  NG2R61   CG3C53   OG3C51   CG3C51     9     0.000000     0.000000     3
  NG2R61   CG3RC1   CG3RC1     HGA1     9     0.000000     0.627600     3
  NG2R61     CN7B     CN7B    OG301     9     0.000000     0.000000     3
  NG2R61     CN7B     CN7B      ON5     9     0.000000     0.000000     3
  NG2R61     CN7B     CN7B      HN7     9     0.000000     0.000000     3
  NG2R61     CN7B     CN7B      CN7     9     0.000000     0.000000     3
  NG2R61     CN7B     ON6B      CN7     9     0.000000     0.000000     3
  NG2R61     CN7B      ON6      CN7     9     0.000000     0.000000     3
  NG2R61     CN7B      CN8      HN8     9     0.000000     0.000000     3
  NG2R61     CN7B      CN8      CN7     9     0.000000     0.000000     3
   OG301   CG2D1O    CG2D2     HGA5     9   180.000000    37.656000     2
   OG301   CG2D1O   CG2DC1   CG2D2O     9   180.000000     6.276000     1
   OG301   CG2D1O   CG2DC1   CG2D2O     9   180.000000    62.760000     2
   OG301   CG2D1O   CG2DC1   CG2DC2     9   180.000000     6.276000     1
   OG301   CG2D1O   CG2DC1   CG2DC2     9   180.000000    62.760000     2
   OG301   CG2D1O   CG2DC1     HGA4     9   180.000000    12.552000     2
   OG301   CG2D1O    CG2O5   CG2R61     9     0.000000     0.376560     2
   OG301   CG2D1O    CG2O5    OG2D3     9   180.000000    14.267440     2
   OG301   CG2D1O   CG2R61   CG2R61     9   180.000000     2.259360     2
   OG301   CG2D1O   CG2R61   CG2R61     9   180.000000     0.627600     6
   OG301   CG2D1O    NG2D1   CG2R61     9   180.000000     1.297040     1
   OG301   CG2D1O    NG2D1   CG2R61     9   180.000000     0.376560     2
   OG301   CG2D2O   CG2DC2   CG2D1O     9   180.000000     6.276000     1
   OG301   CG2D2O   CG2DC2   CG2D1O     9   180.000000    62.760000     2
   OG301   CG2D2O   CG2DC2   CG2DC1     9   180.000000     6.276000     1
   OG301   CG2D2O   CG2DC2   CG2DC1     9   180.000000    62.760000     2
   OG301   CG2D2O   CG2DC2     HGA4     9   180.000000    12.552000     2
   OG301   CG2D2O    CG2O5   CG2R61     9     0.000000     0.376560     2
   OG301   CG2D2O    CG2O5    OG2D3     9   180.000000    14.267440     2
   OG301   CG2D2O   CG2R61   CG2R61     9   180.000000     2.259360     2
   OG301   CG2D2O   CG2R61   CG2R61     9   180.000000     0.627600     6
   OG301   CG2D2O    NG2D1   CG2R61     9   180.000000     1.297040     1
   OG301   CG2D2O    NG2D1   CG2R61     9   180.000000     0.376560     2
   OG301    CG2N2    NG2D1    SG3O2     9   180.000000    27.614400     2
   OG301    CG2N2    NG301   CG2R61     9   180.000000    11.254960     2
   OG301    CG2N2    NG301    CG331     9   180.000000    10.208960     2
   OG301   CG2R52   CG2RC0   CG2R61     9   180.000000     9.162960     2
   OG301   CG2R52   CG2RC0   CG2RC0     9     0.000000     0.041840     2
   OG301   CG2R52   NG2R50   SG2R50     9   180.000000    55.061440     2
   OG301   CG2R53   NG2R50   CG2RC0     9   180.000000    30.794240     2
   OG301   CG2R53   SG2R50   CG2RC0     9   180.000000    11.129440     2
   OG301   CG2R61   CG2R61    OG301     9     0.000000     0.000000     2
   OG301   CG2R61   CG2R61    OG311     9   180.000000     2.426720     2
   OG301   CG2R61   CG2R61    HGR61     9   180.000000    10.041600     2
   OG301   CG2R61   CG2R62   CG2R62     9   180.000000    12.970400     2
   OG301   CG2R61   CG2R62   NG2R60     9   180.000000    12.719360     2
   OG301   CG2R61   CG2R62   NG2R61     9     0.000000     0.292880     2
   OG301   CG2R61   CG2R62   NG2R62     9   180.000000    14.685840     2
   OG301   CG2R61   CG2R64    NG2P1     9     0.000000     0.627600     2
   OG301   CG2R61   CG2R64   NG2R60     9   180.000000    18.535120     2
   OG301   CG2R61   CG2RC0   CG2RC0     9   180.000000    15.146080     2
   OG301   CG2R61   CG2RC0   CG3C51     9   180.000000    10.920240     2
   OG301   CG2R61   NG2R60   CG2R62     9   180.000000    28.158320     2
   OG301   CG2R61   NG2R62   CG2R64     9   180.000000    25.522400     2
   OG301   CG2R62   CG2R62    OG311     9   180.000000     0.000000     2
   OG301   CG2R62   CG2R62    HGR62     9   180.000000    15.480800     2
   OG301   CG2R62   CG2R63   NG2R61     9   180.000000    10.460000     2
   OG301   CG2R62   CG2R63    OG2D4     9   180.000000     0.000000     2
   OG301   CG2R62   CG2R63   OG3R60     9   180.000000    22.886480     2
   OG301   CG2R64   NG2R61   CG2R63     9     0.000000     0.000000     2
   OG301   CG2R64   NG2R61     HGP1     9   180.000000     3.598240     2
   OG301   CG2R64   NG2R62   CG2RC0     9   180.000000    35.396640     2
   OG301    CG301    CG321    CG324     9   180.000000     2.845120     3
   OG301    CG301    CG321    CG324     9     0.000000     1.004160     6
   OG301    CG301    CG321    CG331     9     0.000000     3.347200     3
   OG301    CG301    CG321    NG301     9     0.000000    10.334480     3
   OG301    CG301    CG321     HGA2     9     0.000000     0.669440     3
   OG301    CG301    CG324    NG3P1     9   180.000000     0.920480     1
   OG301    CG301    CG324    NG3P1     9   180.000000     0.292880     3
   OG301    CG301    CG324     HGA2     9     0.000000     0.669440     3
   OG301    CG301    CG331     HGA3     9     0.000000     0.669440     3
   OG301    CG301    OG301    CG331     9     0.000000     2.133840     1
   OG301    CG301    OG301    CG331     9     0.000000     2.803280     2
   OG301    CG301    OG301    CG331     9     0.000000     1.087840     3
   OG301    CG301    OG311     HGP1     9     0.000000     6.485200     1
   OG301    CG301    OG311     HGP1     9     0.000000     4.895280     2
   OG301    CG301    OG311     HGP1     9     0.000000     4.476880     3
   OG301    CG311    CG311   OG3C61     9     0.000000     7.782240     3
   OG301    CG311    CG311   OG3C61     9     0.000000     0.418400     6
   OG301    CG311    CG311     HGA1     9     0.000000     0.815880     3
   OG301    CG311    CG321   CG2R51     9   180.000000     3.347200     1
   OG301    CG311    CG321   CG2R51     9   180.000000     0.836800     3
   OG301    CG311    CG321    CG314     9   180.000000     0.125520     1
   OG301    CG311    CG321    CG314     9     0.000000     0.920480     2
   OG301    CG311    CG321    CG314     9   180.000000     5.397360     3
   OG301    CG311    CG321    CG314     9     0.000000     1.673600     5
   OG301    CG311    CG321    CG321     9   180.000000     0.669440     1
   OG301    CG311    CG321    CG321     9     0.000000     1.631760     2
   OG301    CG311    CG321    NG301     9     0.000000     1.297040     3
   OG301    CG311    CG321    NG301     9     0.000000     4.267680     6
   OG301    CG311    CG321    NG311     9     0.000000     0.083680     3
   OG301    CG311    CG321    NG311     9   180.000000    10.125280     6
   OG301    CG311    CG321   OG3C61     9     0.000000     0.836800     3
   OG301    CG311    CG321     HGA2     9     0.000000     0.815880     3
   OG301    CG311    CG324    NG3P2     9   180.000000    13.807200     1
   OG301    CG311    CG324    NG3P2     9   180.000000    -1.673600     3
   OG301    CG311    CG324     HGA2     9     0.000000     0.836800     3
   OG301    CG311    CG331     HGA3     9     0.000000     0.669440     3
   OG301    CG311   OG3C61    CG311     9     0.000000     0.836800     3
   OG301    CG311   OG3C61    CG321     9     0.000000     0.836800     3
   OG301    CG311      CT1        C     9     0.000000     0.836800     3
   OG301    CG321    CG321    OG301     9   180.000000     1.046000     1
   OG301    CG321    CG321    OG301     9     0.000000     5.188160     2
   OG301    CG321    CG321    OG302     9   180.000000     1.046000     1
   OG301    CG321    CG321    OG302     9     0.000000     5.188160     2
   OG301    CG321    CG321    SG3O2     9     0.000000     4.393200     1
   OG301    CG321    CG321    SG3O2     9     0.000000    20.083200     3
   OG301    CG321    CG321    SG3O2     9   180.000000     0.585760     4
   OG301    CG321    CG321     HGA2     9     0.000000     0.794960     3
   OG301    CG321    CG324    NG3P1     9   180.000000    13.807200     1
   OG301    CG321    CG324    NG3P1     9   180.000000    -1.673600     3
   OG301    CG321    CG324    NG3P2     9   180.000000    13.807200     1
   OG301    CG321    CG324    NG3P2     9   180.000000    -1.673600     3
   OG301    CG321    CG324     HGA2     9     0.000000     0.794960     3
   OG301    CG321    CG331     HGA3     9     0.000000     0.669440     3
   OG301    CG321   CG3C51   CG3C52     9   180.000000     0.836800     3
   OG301    CG321   CG3C51     HGA1     9     0.000000     0.815880     3
   OG301    CG321    OG301    CG311     9   180.000000     1.380720     1
   OG301    CG321    OG301    CG311     9     0.000000     0.292880     2
   OG301    CG321    OG301    CG311     9     0.000000     5.397360     3
   OG301    CG321    OG301    CG311     9   180.000000     3.221680     6
   OG301   CG3C31   CG3C31     HGA1     9   180.000000     0.000000     6
   OG301   CG3C41   CG3C41     HGA2     9     0.000000     0.000000     3
   OG301   CG3C51   CG3C51    OG311     9     0.000000     0.000000     3
   OG301   CG3C51   CG3C51     HGA1     9     0.000000     0.815880     3
   OG301   CG3C51   CG3C52   CG2R51     9     0.000000     0.585760     3
   OG301   CG3C51   CG3C52   CG3C52     9   180.000000     8.368000     3
   OG301   CG3C51   CG3C52   CG3C52     9     0.000000     1.673600     5
   OG301   CG3C51   CG3C52   CG3C52     9     0.000000     3.347200     6
   OG301   CG3C51   CG3C52   OG3C51     9     0.000000     0.836800     3
   OG301   CG3C51   CG3C52     HGA2     9   180.000000     0.815880     3
   OG301   CG3C51   CG3C53   CG2R51     9     0.000000     0.585760     3
   OG301   CG3C51   CG3C53    NG3P2     9     0.000000     0.000000     3
   OG301   CG3C51   CG3C53     HGA1     9     0.000000     0.815880     3
   OG301   CG3C51   OG3C51   CG3C51     9     0.000000    13.388800     2
   OG301   CG3C51   OG3C51   CG3C51     9     0.000000     7.949600     3
   OG301   CG3C51   OG3C51   CG3C51     9   180.000000     4.184000     4
   OG301   CG3C51   OG3C51   CG3C52     9     0.000000    13.388800     2
   OG301   CG3C51   OG3C51   CG3C52     9     0.000000     7.949600     3
   OG301   CG3C51   OG3C51   CG3C52     9   180.000000     4.184000     4
   OG301   CC3162   CC3161   CC3161     9     0.000000     0.836800     3
   OG301   CC3162   CC3161    OC311     9   180.000000    11.087600     1
   OG301   CC3162   CC3161    OC311     9     0.000000     0.000000     2
   OG301   CC3162   CC3161    OC311     9   180.000000     0.543920     3
   OG301   CC3162   CC3161     HCA1     9     0.000000     0.836800     3
   OG301   CC3162   OC3C61   CC3163     9     0.000000     0.836800     3
   OG301     CN7B      CN7      ON2     9     0.000000     0.000000     3
   OG301     CN7B      CN7      ON5     9     0.000000     0.000000     3
   OG301     CN7B      CN7      CN7     9     0.000000     0.000000     3
   OG301     CN7B      CN7      HN7     9     0.000000     0.815880     3
   OG301     CN7B     CN7B     ON6B     9     0.000000     0.000000     3
   OG301     CN7B     CN7B      HN7     9     0.000000     0.815880     3
  OG3R60   CG2D1O   CG2D2O   CG2DC2     9   180.000000     4.727920     2
  OG3R60   CG2D1O   CG2D2O   CG2DC2     9   180.000000     2.928800     3
  OG3R60   CG2D1O   CG2D2O   OG3R60     9   180.000000     9.999760     2
  OG3R60   CG2D1O   CG2D2O   OG3R60     9     0.000000     8.660880     3
  OG3R60   CG2D1O   CG2DC1   CG2DC2     9   180.000000     8.368000     2
  OG3R60   CG2D1O   CG2DC1    CG321     9     0.000000     1.297040     2
  OG3R60   CG2D1O   CG2DC1     HGA4     9   180.000000    29.288000     2
  OG3R60   CG2D1O    CG331     HGA3     9     0.000000     0.669440     3
  OG3R60   CG2D1O    NG2D1    CG301     9   180.000000    17.907520     2
  OG3R60   CG2D2O   CG2DC2   CG2DC1     9   180.000000     8.368000     2
  OG3R60   CG2D2O   CG2DC2    CG321     9     0.000000     1.297040     2
  OG3R60   CG2D2O   CG2DC2     HGA4     9   180.000000    29.288000     2
  OG3R60   CG2D2O    CG331     HGA3     9     0.000000     0.669440     3
  OG3R60   CG2D2O    NG2D1    CG301     9   180.000000    17.907520     2
  OG3R60    CG2O2   CG2R61   CG2R61     9   180.000000     3.556400     2
  OG3R60    CG2O6    NG2S0    CG311     9   180.000000    16.736000     2
  OG3R60    CG2O6    NG2S0    CG311     9     0.000000     3.974800     4
  OG3R60    CG2O6    NG2S0    CG331     9   180.000000    16.736000     2
  OG3R60    CG2O6    NG2S0    CG331     9     0.000000     3.974800     4
  OG3R60    CG2O6    NG2S1    CG301     9   180.000000    16.736000     2
  OG3R60    CG2O6    NG2S1    CG301     9     0.000000     3.974800     4
  OG3R60    CG2O6    NG2S1    CG311     9   180.000000    16.736000     2
  OG3R60    CG2O6    NG2S1    CG311     9     0.000000     3.974800     4
  OG3R60    CG2O6    NG2S1     HGP1     9   180.000000     0.000000     2
  OG3R60   CG2R51   CG2R51   OG3R60     9   180.000000     1.589920     2
  OG3R60   CG2R51   CG2R51   SG2R50     9   180.000000    10.167120     2
  OG3R60   CG2R51   CG2R51    HGR52     9     0.000000     0.000000     2
  OG3R60   CG2R61   CG2R61   OG3R60     9   180.000000     8.702720     2
  OG3R60   CG2R61   CG2R61    SG3O2     9   180.000000     3.012480     2
  OG3R60   CG2R61   CG2R61    HGR61     9   180.000000    10.041600     2
  OG3R60   CG2R61   CG2R66   CG2R66     9   180.000000    12.970400     2
  OG3R60   CG2R61   CG2R66     FGR1     9   180.000000    11.296800     2
  OG3R60   CG2R61    CG331     HGA3     9     0.000000     1.171520     3
  OG3R60   CG2R61    NG2D1     HGP1     9   180.000000     3.389040     1
  OG3R60   CG2R61    NG2D1     HGP1     9   180.000000    18.409600     2
  OG3R60   CG2R62   CG2R62    HGR62     9   180.000000    10.041600     2
  OG3R60   CG2R62   CG2R67   CG2R61     9   180.000000    16.945200     2
  OG3R60   CG2R62   CG2R67   CG2R67     9   180.000000    13.346960     2
  OG3R60   CG2R62    CG302     FGA3     9   180.000000     0.000000     1
  OG3R60   CG2R62    CG302     FGA3     9   180.000000     0.000000     2
  OG3R60   CG2R62    CG302     FGA3     9     0.000000     2.384880     3
  OG3R60   CG2R62   NG2R60   CG2R61     9   180.000000    33.639360     2
  OG3R60   CG2R62   NG2R60   CG2R62     9   180.000000    16.568640     2
  OG3R60   CG2R62   NG2R61   CG2R62     9   180.000000     6.234160     2
  OG3R60   CG2R62   NG2R61     HGP1     9   180.000000     0.962320     2
  OG3R60   CG2R63   CG2R64   NG2R60     9   180.000000     6.066800     2
  OG3R60   CG2R63   CG2R64    NG311     9   180.000000     8.284320     2
  OG3R60   CG2R63   CG2RC0   CG2R52     9     0.000000     2.008320     2
  OG3R60   CG2R63   CG2RC0   CG2RC0     9     0.000000     9.539520     2
  OG3R60   CG2R63   NG2R61   CG2R63     9     0.000000     6.903600     2
  OG3R60   CG2R63   NG2R61     HGP1     9   180.000000    12.928560     2
  OG3R60   CG2R64   NG2R60   CG2RC0     9   180.000000     9.706880     2
  OG3R60   CG2R64    NG2S3     HGP4     9   180.000000     1.882800     2
  OG3R60   CG2R67   NG2R60   CG2R62     9   180.000000    26.568400     2
  OG3R60    CG301    CG311    CG311     9   180.000000     0.543920     3
  OG3R60    CG301    CG311    CG311     9   180.000000     0.711280     6
  OG3R60    CG301    CG311    OG311     9   180.000000     3.179840     1
  OG3R60    CG301    CG311    OG311     9   180.000000     5.899440     3
  OG3R60    CG301    CG311    OG311     9     0.000000     4.518720     4
  OG3R60    CG301    CG311     HGA1     9     0.000000     0.000000     3
  OG3R60    CG301    CG321    CG311     9     0.000000     3.347200     3
  OG3R60    CG301    CG321    CG321     9     0.000000     3.347200     3
  OG3R60    CG301    CG321    OG311     9   180.000000     1.422560     1
  OG3R60    CG301    CG321    OG311     9   180.000000     3.138000     3
  OG3R60    CG301    CG321     HGA2     9     0.000000     0.669440     3
  OG3R60    CG301    CG331     HGA3     9     0.000000     0.669440     3
  OG3R60    CG301   OG3C61    CG321     9     0.000000     3.096160     3
  OG3R60    CG311    CG311     HGA1     9     0.000000     0.836800     3
  OG3R60    CG311    CG321    CG301     9   180.000000     0.794960     1
  OG3R60    CG311    CG321    CG301     9   180.000000     4.184000     2
  OG3R60    CG311    CG321    CG301     9     0.000000     2.510400     3
  OG3R60    CG311    CG321    CG301     9   180.000000     0.334720     4
  OG3R60    CG311    CG321    CG321     9   180.000000     0.794960     1
  OG3R60    CG311    CG321    CG321     9   180.000000     4.184000     2
  OG3R60    CG311    CG321    CG321     9     0.000000     2.510400     3
  OG3R60    CG311    CG321    CG321     9   180.000000     0.334720     4
  OG3R60    CG311    CG321    SG311     9   180.000000     1.631760     1
  OG3R60    CG311    CG321    SG311     9   180.000000     0.209200     3
  OG3R60    CG311    CG321     HGA2     9     0.000000     0.836800     3
  OG3R60    CG311    CG331     HGA3     9     0.000000     0.669440     3
  OG3R60    CG311    NG2S1    CG2O1     9     0.000000     0.083680     1
  OG3R60    CG311    NG2S1    CG2O1     9     0.000000     3.472720     3
  OG3R60    CG311    NG2S1     HGP1     9   180.000000     7.782240     1
  OG3R60    CG311    NG2S1     HGP1     9     0.000000     0.000000     2
  OG3R60    CG311    NG301    CG301     9     0.000000    11.840720     1
  OG3R60    CG311    NG301    CG301     9     0.000000     5.815760     2
  OG3R60    CG311    NG301    CG301     9   180.000000     3.012480     3
  OG3R60    CG311    NG301    CG331     9   180.000000     9.832400     1
  OG3R60    CG311    NG301    CG331     9   180.000000     0.292880     2
  OG3R60    CG311    NG301    CG331     9   180.000000     8.577200     3
  OG3R60    CG311    SG311   CG2R61     9   180.000000     3.723760     1
  OG3R60    CG311    SG311   CG2R61     9   180.000000     2.635920     2
  OG3R60    CG311    SG311   CG2R61     9   180.000000     0.334720     3
  OG3R60    CG312    CG312   OG3R60     9   180.000000     0.376560     2
  OG3R60    CG312    CG312   OG3R60     9     0.000000     0.000000     3
  OG3R60    CG312    CG312     FGA2     9   180.000000     1.087840     3
  OG3R60    CG321    CG321   OG3R60     9     0.000000     0.836800     3
  OG3R60    CG321    CG321     HGA2     9     0.000000     0.000000     3
  OG3R60   CG3C41   CG3C41     HGA2     9     0.000000     0.000000     3
  OG3R60   CG3C50   CG3C52   CG3C52     9   180.000000     3.681920     2
  OG3R60   CG3C50   CG3C52   CG3C52     9   180.000000     3.974800     3
  OG3R60   CG3C50   CG3C52   CG3C52     9   180.000000     9.957920     5
  OG3R60   CG3C50   CG3C52   CG3C52     9     0.000000     5.481040     6
  OG3R60   CG3C50   CG3C52   NG3C51     9     0.000000     0.711280     2
  OG3R60   CG3C50   CG3C52   NG3C51     9     0.000000    10.250800     3
  OG3R60   CG3C50   CG3C52     HGA2     9   180.000000     0.000000     3
  OG3R60   CG3RC1   CG3RC1     HGA1     9     0.000000     0.000000     3
   CG2O3   CG2D1O   CG2DC1    CG321     9   180.000000     3.305360     1
   CG2O3   CG2D1O   CG2DC1    CG321     9   180.000000    28.953280     2
   CG2O3   CG2D1O   CG2DC1    CG331     9   180.000000     3.305360     1
   CG2O3   CG2D1O   CG2DC1    CG331     9   180.000000    28.953280     2
   CG2O3   CG2D1O   NG2R43   CG2R53     9   180.000000     1.380720     1
   CG2O3   CG2D1O   NG2R43   CG2R53     9   180.000000     3.891120     2
   CG2O3   CG2D1O   NG2R43   CG2R53     9   180.000000     1.840960     3
   CG2O3   CG2D1O   NG2R43   CG3RC1     9     0.000000     2.719600     1
   CG2O3   CG2D1O   NG2R43   CG3RC1     9     0.000000     3.430880     2
   CG2O3   CG2D1O   NG2R43   CG3RC1     9     0.000000     1.213360     3
   CG2O3   CG2D2O   CG2DC2    CG321     9   180.000000     3.305360     1
   CG2O3   CG2D2O   CG2DC2    CG321     9   180.000000    28.953280     2
   CG2O3   CG2D2O   CG2DC2    CG331     9   180.000000     3.305360     1
   CG2O3   CG2D2O   CG2DC2    CG331     9   180.000000    28.953280     2
   CG2O3   CG2D2O   NG2R43   CG2R53     9   180.000000     1.380720     1
   CG2O3   CG2D2O   NG2R43   CG2R53     9   180.000000     3.891120     2
   CG2O3   CG2D2O   NG2R43   CG2R53     9   180.000000     1.840960     3
   CG2O3   CG2D2O   NG2R43   CG3RC1     9     0.000000     2.719600     1
   CG2O3   CG2D2O   NG2R43   CG3RC1     9     0.000000     3.430880     2
   CG2O3   CG2D2O   NG2R43   CG3RC1     9     0.000000     1.213360     3
   CG2O3   CG2DC1   CG2DC1   CG2R52     9   180.000000     7.029120     2
   CG2O3   CG2DC1   CG2DC1    CG331     9   180.000000     2.343040     1
   CG2O3   CG2DC1   CG2DC1    CG331     9   180.000000    29.288000     2
   CG2O3   CG2DC1   CG2DC1     HGA4     9   180.000000     4.518720     2
   CG2O3   CG2DC1   CG2DC2   CG2DC2     9   180.000000     3.221680     1
   CG2O3   CG2DC1   CG2DC2   CG2DC2     9     0.000000    14.225600     2
   CG2O3   CG2DC1   CG2DC2   CG2DC2     9     0.000000     4.142160     3
   CG2O3   CG2DC1   CG2DC2     HGA4     9   180.000000     4.267680     2
   CG2O3   CG2DC1   CG2DC3     HGA5     9   180.000000    17.572800     2
   CG2O3   CG2DC1    CG2O1    NG2S0     9   180.000000     4.727920     1
   CG2O3   CG2DC1    CG2O1    NG2S0     9     0.000000     2.426720     2
   CG2O3   CG2DC1    CG2O1    NG2S0     9     0.000000     0.543920     3
   CG2O3   CG2DC1    CG2O1    NG2S0     9     0.000000     1.506240     4
   CG2O3   CG2DC1    CG2O1    OG2D1     9     0.000000    12.300960     1
   CG2O3   CG2DC1    CG2O1    OG2D1     9   180.000000     8.619040     2
   CG2O3   CG2DC1    CG2O1    OG2D1     9   180.000000     9.455840     3
   CG2O3   CG2DC1    CG2O1    OG2D1     9     0.000000     2.719600     4
   CG2O3   CG2DC1    CG321    CG321     9     0.000000     2.807464     1
   CG2O3   CG2DC1    CG321    CG321     9     0.000000     9.406050     3
   CG2O3   CG2DC1    CG321     HGA2     9     0.000000     0.000000     3
   CG2O3   CG2DC1    CG331     HGA3     9   180.000000     1.445990     3
   CG2O3   CG2DC1    NG2D1    CG321     9   180.000000    20.656408     2
   CG2O3   CG2DC1    NG2D1    CG331     9   180.000000    20.484864     2
   CG2O3   CG2DC1    NG2P1    CG324     9   180.000000    18.520058     2
   CG2O3   CG2DC2   CG2DC2   CG2R52     9   180.000000     7.029120     2
   CG2O3   CG2DC2   CG2DC2    CG331     9   180.000000     2.343040     1
   CG2O3   CG2DC2   CG2DC2    CG331     9   180.000000    29.288000     2
   CG2O3   CG2DC2   CG2DC2     HGA4     9   180.000000     4.518720     2
   CG2O3   CG2DC2   CG2DC3     HGA5     9   180.000000    17.572800     2
   CG2O3   CG2DC2    CG2O1    NG2S0     9   180.000000     4.727920     1
   CG2O3   CG2DC2    CG2O1    NG2S0     9     0.000000     2.426720     2
   CG2O3   CG2DC2    CG2O1    NG2S0     9     0.000000     0.543920     3
   CG2O3   CG2DC2    CG2O1    NG2S0     9     0.000000     1.506240     4
   CG2O3   CG2DC2    CG2O1    OG2D1     9     0.000000    12.300960     1
   CG2O3   CG2DC2    CG2O1    OG2D1     9   180.000000     8.619040     2
   CG2O3   CG2DC2    CG2O1    OG2D1     9   180.000000     9.455840     3
   CG2O3   CG2DC2    CG2O1    OG2D1     9     0.000000     2.719600     4
   CG2O3   CG2DC2    CG321    CG321     9     0.000000     2.807464     1
   CG2O3   CG2DC2    CG321    CG321     9     0.000000     9.406050     3
   CG2O3   CG2DC2    CG321     HGA2     9     0.000000     0.000000     3
   CG2O3   CG2DC2    CG331     HGA3     9   180.000000     1.445990     3
   CG2O3   CG2DC2    NG2D1    CG321     9   180.000000    20.656408     2
   CG2O3   CG2DC2    NG2D1    CG331     9   180.000000    20.484864     2
   CG2O3   CG2DC2    NG2P1    CG324     9   180.000000    18.520058     2
   CG2O3    CG2O5   CG2R61   CG2R61     9   180.000000     6.631640     2
   CG2O3    CG2O5    CG321    CG321     9   180.000000     2.128819     1
   CG2O3    CG2O5    CG321    CG321     9     0.000000     0.503754     2
   CG2O3    CG2O5    CG321    CG321     9     0.000000     0.238906     3
   CG2O3    CG2O5    CG321     HGA2     9   180.000000     0.026359     3
   CG2O3   CG2R51   CG2R51   CG2R51     9   180.000000     0.000000     2
   CG2O3   CG2R51   CG2R51   CG2RC0     9   180.000000     0.000000     2
   CG2O3   CG2R51   CG2R51    CG331     9   180.000000     0.000000     2
   CG2O3   CG2R51   CG2R51   CG3C52     9     0.000000     0.000000     2
   CG2O3   CG2R51   CG2R51   NG2RC0     9   180.000000     4.393200     2
   CG2O3   CG2R51   CG2R51   SG2R50     9   180.000000    23.304880     2
   CG2O3   CG2R51   CG2R51     FGR1     9     0.000000     0.125520     2
   CG2O3   CG2R51   CG2R51    HGR51     9   180.000000     9.288480     2
   CG2O3   CG2R51   CG2R51    HGR52     9     0.000000     0.000000     2
   CG2O3   CG2R51   CG2R53   NG2R51     9     0.000000     0.000000     2
   CG2O3   CG2R51   CG2R53    OG2D1     9     0.000000     0.000000     2
   CG2O3   CG2R51   NG2R50   CG2RC0     9   180.000000     8.577200     2
   CG2O3   CG2R51   OG2R50   CG2RC0     9   180.000000    12.342800     2
   CG2O3   CG2R52   CG2RC0   CG2R61     9     0.000000     0.000000     2
   CG2O3   CG2R52   CG2RC0   CG2R66     9     0.000000     0.000000     2
   CG2O3   CG2R52   CG2RC0   CG2RC0     9   180.000000    10.878400     2
   CG2O3   CG2R52   NG2R50   NG2R51     9   180.000000    16.066560     2
   CG2O3   CG2R52   NG2R50   OG2R50     9   180.000000     3.640080     2
   CG2O3   CG2R53   NG2R50   CG2R51     9   180.000000    19.497440     2
   CG2O3   CG2R53   NG2R50   CG2RC0     9   180.000000     5.020800     2
   CG2O3   CG2R53   NG2R51   CG2RC0     9   180.000000     1.966480     2
   CG2O3   CG2R53   NG2R51     HGP1     9   180.000000     6.861760     2
   CG2O3   CG2R53   SG2R50   CG2R51     9   180.000000     7.322000     2
   CG2O3   CG2R61   CG2R61   CG2R61     9   180.000000    12.970400     2
   CG2O3   CG2R61   CG2R61   CG2R66     9   180.000000    12.970400     2
   CG2O3   CG2R61   CG2R61    CG311     9   180.000000    10.041600     2
   CG2O3   CG2R61   CG2R61   NG2R60     9   180.000000     4.184000     2
   CG2O3   CG2R61   CG2R61   NG2R61     9   180.000000    25.355040     2
   CG2O3   CG2R61   CG2R61    NG2S1     9   180.000000    10.041600     2
   CG2O3   CG2R61   CG2R61    OG311     9   180.000000    42.844160     2
   CG2O3   CG2R61   CG2R61    HGR61     9   180.000000    10.041600     2
   CG2O3   CG2R61   CG2R61    HGR62     9   180.000000    10.041600     2
   CG2O3   CG2R61   CG2R63   CG2R61     9     0.000000     0.209200     2
   CG2O3   CG2R61   CG2R63    SG2D1     9     0.000000     0.000000     2
   CG2O3   CG2R61   CG2RC0   CG2R52     9     0.000000     0.041840     2
   CG2O3   CG2R61   CG2RC0   CG2RC0     9   180.000000    12.970400     2
   CG2O3   CG2R61   CG2RC0   CG3C52     9   180.000000     2.175680     2
   CG2O3   CG2R61   CG2RC0   OG2R50     9     0.000000     2.133840     2
   CG2O3   CG2R61   NG2R62   CG2R64     9   180.000000    15.438960     2
   CG2O3   CG2R61   NG2R62   NG2R62     9   180.000000    16.526800     2
   CG2O3   CG2R62   CG2R62   CG2R62     9   180.000000    12.552000     2
   CG2O3   CG2R62   CG2R62   CG2R63     9   180.000000    12.552000     2
   CG2O3   CG2R62   CG2R62   CG2RC0     9   180.000000     7.489360     2
   CG2O3   CG2R62   CG2R62    CG331     9   180.000000    17.028880     2
   CG2O3   CG2R62   CG2R62   NG2R61     9   180.000000    10.460000     2
   CG2O3   CG2R62   CG2R62    HGR62     9   180.000000    11.715200     2
   CG2O3   CG2R62   CG2R62    HGR63     9   180.000000     4.184000     2
   CG2O3   CG2R62   CG2R63   NG2R61     9   180.000000     3.472720     2
   CG2O3   CG2R62   CG2R63    OG2D4     9     0.000000     0.000000     2
   CG2O3   CG2R62   NG2R61   CG2R62     9     0.000000     0.000000     2
   CG2O3   CG2R62   NG2R61   CG2R63     9   180.000000     5.481040     2
   CG2O3   CG2R62   NG2R61    CG334     9   180.000000    16.024720     2
   CG2O3   CG2R62   NG2R61     HGP1     9   180.000000    11.129440     2
   CG2O3   CG2R62   OG3R60   CG2R62     9   180.000000    31.756560     2
   CG2O3   CG2R64   NG2R61   CG2R63     9     0.000000     0.000000     2
   CG2O3   CG2R64   NG2R61     HGP1     9   180.000000    14.434800     2
   CG2O3   CG2R64   NG2R62   CG2R64     9   180.000000    28.576720     2
   CG2O3    CG301    CG321    CG2O5     9     0.000000     4.435040     3
   CG2O3    CG301    CG321    CG2O5     9     0.000000     1.882800     4
   CG2O3    CG301    CG321    CG301     9     0.000000     0.836800     3
   CG2O3    CG301    CG321    CG311     9     0.000000     0.836800     3
   CG2O3    CG301    CG321     HGA2     9     0.000000     0.836800     3
   CG2O3    CG301    CG324    NG3P1     9   180.000000     1.255200     2
   CG2O3    CG301    CG324    NG3P1     9   180.000000     0.251040     3
   CG2O3    CG301    CG324     HGA2     9     0.000000     0.836800     3
   CG2O3    CG301    CG331     HGA3     9     0.000000     0.836800     3
   CG2O3    CG301    OG301    CG331     9     0.000000     0.836800     3
   CG2O3    CG301    OG303      PG1     9   180.000000     1.694938     1
   CG2O3    CG301    OG303      PG1     9     0.000000     9.482618     2
   CG2O3    CG301    OG303      PG1     9   180.000000     1.165244     3
   CG2O3    CG301    OG311     HGP1     9   180.000000     3.430880     3
   CG2O3    CG301   OG3C61    CG321     9   180.000000     0.041840     3
   CG2O3    CG301    SG311    CG321     9   180.000000     3.544266     1
   CG2O3    CG301    SG311    CG321     9   180.000000     4.647169     2
   CG2O3    CG301    SG311    CG321     9     0.000000     4.813692     3
   CG2O3    CG301      CT1        C     9     0.000000     0.836800     3
   CG2O3    CG311    CG311    CG321     9     0.000000     0.836800     3
   CG2O3    CG311    CG311    CG331     9     0.000000     0.836800     3
   CG2O3    CG311    CG311    OG311     9     0.000000     0.836800     3
   CG2O3    CG311    CG311     HGA1     9     0.000000     0.836800     3
   CG2O3    CG311    CG321    CG2O1     9     0.000000     0.836800     3
   CG2O3    CG311    CG321    CG2O3     9     0.000000     0.836800     3
   CG2O3    CG311    CG321   CG2R51     9     0.000000     0.836800     3
   CG2O3    CG311    CG321   CG2R61     9     0.000000     0.167360     3
   CG2O3    CG311    CG321    CG311     9     0.000000     0.836800     3
   CG2O3    CG311    CG321    CG321     9     0.000000     0.836800     3
   CG2O3    CG311    CG321    CG331     9     0.000000     0.836800     3
   CG2O3    CG311    CG321   NG3C51     9     0.000000     4.272282     1
   CG2O3    CG311    CG321   NG3C51     9   180.000000     1.679876     2
   CG2O3    CG311    CG321   NG3C51     9     0.000000     0.896631     3
   CG2O3    CG311    CG321    OG311     9     0.000000     0.836800     3
   CG2O3    CG311    CG321    SG301     9     0.000000     0.836800     3
   CG2O3    CG311    CG321    SG311     9     0.000000     0.836800     3
   CG2O3    CG311    CG321     HGA2     9     0.000000     0.836800     3
   CG2O3    CG311    CG324    NG3P1     9     0.000000     0.836800     3
   CG2O3    CG311    CG324     HGA2     9     0.000000     0.836800     3
   CG2O3    CG311    CG331     HGA3     9     0.000000     0.669440     3
   CG2O3    CG311    NG2D1   CG2DC1     9   180.000000     7.405680     1
   CG2O3    CG311    NG2D1   CG2DC1     9     0.000000    11.045760     2
   CG2O3    CG311    NG2D1   CG2DC1     9   180.000000     1.380720     3
   CG2O3    CG311    NG2D1   CG2DC1     9   180.000000     0.209200     4
   CG2O3    CG311    NG2D1   CG2DC1     9   180.000000     3.932960     6
   CG2O3    CG311    NG2D1   CG2DC2     9   180.000000     7.405680     1
   CG2O3    CG311    NG2D1   CG2DC2     9     0.000000    11.045760     2
   CG2O3    CG311    NG2D1   CG2DC2     9   180.000000     1.380720     3
   CG2O3    CG311    NG2D1   CG2DC2     9   180.000000     0.209200     4
   CG2O3    CG311    NG2D1   CG2DC2     9   180.000000     3.932960     6
   CG2O3    CG311   NG2R51   CG2R51     9     0.000000     0.502080     1
   CG2O3    CG311   NG2R51   CG2R51     9     0.000000     3.849280     2
   CG2O3    CG311   NG2R51   CG2R51     9     0.000000     4.309520     3
   CG2O3    CG311   NG2R51   CG2R53     9   180.000000     1.631760     1
   CG2O3    CG311   NG2R51   CG2R53     9     0.000000    15.397120     2
   CG2O3    CG311   NG2R51   CG2R53     9     0.000000     0.376560     3
   CG2O3    CG311   NG2R53   CG2R53     9   180.000000     0.000000     1
   CG2O3    CG311    NG2S1    CG2O1     9   180.000000     0.836800     1
   CG2O3    CG311    NG2S1    CG2O6     9   180.000000     0.836800     1
   CG2O3    CG311    NG2S1     HGP1     9     0.000000     0.000000     1
   CG2O3    CG311    OG301    CG331     9     0.000000     0.836800     3
   CG2O3    CG311    OG302    CG2O2     9     0.000000     4.738380     3
   CG2O3    CG311    OG311     HGP1     9     0.000000     1.255200     1
   CG2O3    CG311    OG311     HGP1     9   180.000000     1.255200     2
   CG2O3    CG311    OG311     HGP1     9     0.000000     1.673600     3
   CG2O3    CG311   OG3C61    CG311     9   180.000000     0.418400     2
   CG2O3    CG311   OG3C61    CG311     9     0.000000     0.000000     3
   CG2O3    CG311    SG311    CG321     9   180.000000     8.062986     1
   CG2O3    CG311    SG311    CG321     9   180.000000     5.373511     2
   CG2O3    CG311    SG311    CG321     9     0.000000    10.384270     3
   CG2O3    CG311    SG311    CG331     9   180.000000     9.548725     1
   CG2O3    CG311    SG311    CG331     9   180.000000     2.520860     2
   CG2O3    CG311    SG311    CG331     9     0.000000     1.214197     3
   CG2O3    CG311    SG311    CG331     9   180.000000     0.893284     4
   CG2O3    CG311      CT1        C     9     0.000000     0.836800     3
   CG2O3    CG311    CG2O1        N     9   180.000000     0.502080     1
   CG2O3    CG311    CG2O1        N     9   180.000000     1.506240     2
   CG2O3    CG311    CG2O1        N     9     0.000000     1.715440     3
   CG2O3    CG314    CG321    CG2O1     9     0.000000     0.836800     3
   CG2O3    CG314    CG321    CG2O3     9     0.000000     0.836800     3
   CG2O3    CG314    CG321   CG2R51     9     0.000000     0.836800     3
   CG2O3    CG314    CG321   CG2R61     9     0.000000     0.167360     3
   CG2O3    CG314    CG321    CG311     9     0.000000     0.836800     3
   CG2O3    CG314    CG321    CG321     9     0.000000     0.836800     3
   CG2O3    CG314    CG321    OG311     9     0.000000     0.836800     3
   CG2O3    CG314    CG321    SG311     9     0.000000     0.836800     3
   CG2O3    CG314    CG321    CLGA1     9   180.000000     0.948094     1
   CG2O3    CG314    CG321    CLGA1     9     0.000000     0.557727     3
   CG2O3    CG314    CG321     HGA2     9     0.000000     0.836800     3
   CG2O3    CG314    CG331     HGA3     9     0.000000     0.669440     3
   CG2O3    CG314   CG3C51   CG3C52     9     0.000000     0.647265     4
   CG2O3    CG314   CG3C51   OG3C51     9   180.000000    19.257697     1
   CG2O3    CG314   CG3C51     HGA1     9     0.000000     1.699959     3
   CG2O3    CG314    NG3P1    CG324     9   180.000000     0.000000     1
   CG2O3    CG314    NG3P1    CG324     9   180.000000     0.000000     2
   CG2O3    CG314    NG3P1    CG324     9   180.000000     0.000000     3
   CG2O3    CG314    NG3P1     HGP2     9   180.000000     0.167360     2
   CG2O3    CG314    NG3P1     HGP2     9   180.000000     0.000000     3
   CG2O3    CG314    NG3P2    CG314     9   180.000000     4.184000     1
   CG2O3    CG314    NG3P2    CG314     9     0.000000     2.928800     2
   CG2O3    CG314    NG3P2     HGP2     9   180.000000     0.167360     3
   CG2O3    CG314    NG3P3     HGP2     9     0.000000     0.418400     3
   CG2O3    CG321    CG321   CG2R61     9     0.000000     0.167360     3
   CG2O3    CG321    CG321    CG311     9     0.000000     0.815880     3
   CG2O3    CG321    CG321    CG314     9     0.000000     0.815880     3
   CG2O3    CG321    CG321    CG321     9     0.000000     0.269868     2
   CG2O3    CG321    CG321    CG321     9   180.000000     0.626554     3
   CG2O3    CG321    CG321    CG321     9     0.000000     0.395723     4
   CG2O3    CG321    CG321    CG321     9     0.000000     0.470742     5
   CG2O3    CG321    CG321     HGA2     9     0.000000     0.815880     3
   CG2O3    CG321    CG331     HGA3     9     0.000000     0.669440     3
   CG2O3    CG321    NG2S1    CG2O1     9   180.000000     0.836800     1
   CG2O3    CG321    NG2S1    CG2O6     9   180.000000     0.836800     1
   CG2O3    CG321    NG2S1     HGP1     9     0.000000     0.000000     1
   CG2O3    CG321    OG301   CG2R61     9   180.000000     4.602400     1
   CG2O3    CG321    OG301   CG2R61     9   180.000000     0.836800     3
   CG2O3    CG321    OG301   CG2R62     9   180.000000     5.481040     1
   CG2O3    CG321    OG301    CG331     9     0.000000     0.836800     3
   CG2O3    CG321    OG302    CG2O2     9   180.000000     2.838007     1
   CG2O3    CG321    OG302    CG2O2     9     0.000000     7.293130     2
   CG2O3    CG321    OG302    CG2O2     9     0.000000     4.571020     3
   CG2O3    CG321    SG311    CG321     9   180.000000    17.164860     1
   CG2O3    CG321    SG311    CG321     9   180.000000     4.924986     2
   CG2O3    CG321    SG311    CG321     9     0.000000     4.332950     3
   CG2O3    CG321    SG311    CG331     9   180.000000    17.164860     1
   CG2O3    CG321    SG311    CG331     9   180.000000     4.924986     2
   CG2O3    CG321    SG311    CG331     9     0.000000     4.332950     3
   CG2O3    CG321      CT1        C     9     0.000000     0.836800     3
   CG2O3    CG324    NG3P2    CG324     9   180.000000     4.184000     1
   CG2O3    CG324    NG3P2    CG324     9     0.000000     2.928800     2
   CG2O3    CG324    NG3P2    CG334     9   180.000000     4.184000     1
   CG2O3    CG324    NG3P2    CG334     9     0.000000     2.928800     2
   CG2O3    CG324    NG3P2     HGP2     9   180.000000     0.167360     3
   CG2O3    CG324    NG3P3     HGP2     9     0.000000     0.418400     3
   CG2O3   CG3C31   CG3C31    CG321     9     0.000000     0.000000     2
   CG2O3   CG3C31   CG3C31    CG321     9     0.000000     0.836800     6
   CG2O3   CG3C31   CG3C31   CG3C31     9     0.000000     4.769760     3
   CG2O3   CG3C31   CG3C31   CG3C31     9     0.000000     1.338880     6
   CG2O3   CG3C31   CG3C31     HGA1     9   180.000000     0.000000     5
   CG2O3   CG3C41   CG3C41   CG3RC1     9   180.000000     2.761440     2
   CG2O3   CG3C41   CG3C41   CG3RC1     9   180.000000     5.355520     3
   CG2O3   CG3C41   CG3C41     HGA2     9   180.000000     0.711280     3
   CG2O3   CG3C41   CG3RC1    CG321     9   180.000000     5.062640     2
   CG2O3   CG3C41   CG3RC1    CG321     9     0.000000    13.890880     3
   CG2O3   CG3C41   CG3RC1    CG321     9     0.000000     5.355520     6
   CG2O3   CG3C41   CG3RC1    CG324     9     0.000000     2.301200     2
   CG2O3   CG3C41   CG3RC1    CG324     9     0.000000     6.778080     3
   CG2O3   CG3C41   CG3RC1   CG3RC1     9     0.000000     0.836800     2
   CG2O3   CG3C41   CG3RC1   CG3RC1     9   180.000000     4.769760     3
   CG2O3   CG3C41   CG3RC1   CG3RC1     9   180.000000    10.752880     6
   CG2O3   CG3C41   CG3RC1     HGA1     9   180.000000     0.000000     3
   CG2O3   CG3C50   CG3C50    CG331     9     0.000000     0.878640     3
   CG2O3   CG3C50   CG3C50    CG331     9   180.000000     7.824080     4
   CG2O3   CG3C50   CG3C50   CG3C50     9   180.000000     0.502080     2
   CG2O3   CG3C50   CG3C50   CG3C50     9     0.000000     1.422560     3
   CG2O3   CG3C50   CG3C50   CG3C52     9     0.000000     1.589920     3
   CG2O3   CG3C50   CG3C52   CG3C52     9     0.000000     0.585760     3
   CG2O3   CG3C50   CG3C52     HGA2     9     0.000000     0.585760     3
   CG2O3   CG3C50    NG3P3     HGP2     9   180.000000     0.585760     3
   CG2O3   CG3C50    NG3P3     HGP2     9     0.000000     0.167360     6
   CG2O3   CG3C51   CG3C51   CG2R51     9     0.000000    10.376320     2
   CG2O3   CG3C51   CG3C51   CG2R51     9     0.000000     2.217520     3
   CG2O3   CG3C51   CG3C51    CG331     9     0.000000     1.715440     2
   CG2O3   CG3C51   CG3C51    CG331     9     0.000000     6.861760     3
   CG2O3   CG3C51   CG3C51     HGA1     9     0.000000     0.585760     3
   CG2O3   CG3C51   CG3C52   CG2R51     9   180.000000     1.422560     2
   CG2O3   CG3C51   CG3C52   CG2R51     9     0.000000     1.673600     3
   CG2O3   CG3C51   CG3C52   CG2RC0     9     0.000000     0.000000     2
   CG2O3   CG3C51   CG3C52   CG2RC0     9   180.000000     1.129680     3
   CG2O3   CG3C51   CG3C52   CG3C52     9     0.000000     0.585760     3
   CG2O3   CG3C51   CG3C52   CG3RC1     9     0.000000     0.585760     3
   CG2O3   CG3C51   CG3C52   OG3C51     9     0.000000     5.690240     2
   CG2O3   CG3C51   CG3C52   OG3C51     9     0.000000     0.167360     3
   CG2O3   CG3C51   CG3C52     HGA2     9     0.000000     0.585760     3
   CG2O3   CG3C51   CG3RC1    CG321     9     0.000000     0.000000     2
   CG2O3   CG3C51   CG3RC1    CG321     9   180.000000     4.142160     3
   CG2O3   CG3C51   CG3RC1   CG3C52     9     0.000000    17.865680     2
   CG2O3   CG3C51   CG3RC1   CG3C52     9   180.000000    15.271600     3
   CG2O3   CG3C51   CG3RC1     HGA1     9     0.000000     0.000000     3
   CG2O3   CG3C51    NG2S0    CG2O1     9     0.000000     3.347200     3
   CG2O3   CG3C51    NG2S0   CG3C52     9     0.000000     0.418400     3
   CG2O3   CG3C51   OG3C51   CG3C50     9     0.000000     7.573040     2
   CG2O3   CG3C51   OG3C51   CG3C50     9     0.000000     2.886960     3
   CG2O3   CG3C51    SG311   CG2RC0     9     0.000000     0.209200     1
   CG2O3   CG3C51    SG311   CG2RC0     9     0.000000     0.041840     2
   CG2O3   CG3C51    SG311   CG2RC0     9     0.000000     0.753120     3
   CG2O3   CG3C53   CG3RC1   CG3C41     9   180.000000     2.928800     3
   CG2O3   CG3C53   CG3RC1   CG3C41     9     0.000000     1.966480     6
   CG2O3   CG3C53   CG3RC1   CG3RC1     9     0.000000     2.510400     3
   CG2O3   CG3C53   CG3RC1   CG3RC1     9     0.000000     0.836800     4
   CG2O3   CG3C53   CG3RC1     HGA1     9     0.000000     0.000000     3
   CG2O3   CG3C53    NG3P2   CG3C54     9     0.000000     0.334720     3
   CG2O3   CG3C53    NG3P2     HGP2     9     0.000000     0.334720     3
   CG2O3   CG3RC1   CG3RC1    CG2O5     9     0.000000     0.209200     2
   CG2O3   CG3RC1   CG3RC1    CG2O5     9   180.000000     1.757280     3
   CG2O3   CG3RC1   CG3RC1   CG3C31     9   180.000000     1.464400     2
   CG2O3   CG3RC1   CG3RC1   CG3C31     9   180.000000     8.368000     3
   CG2O3   CG3RC1   CG3RC1     HGA1     9     0.000000     0.000000     3
   CG2O3   CG3RC1   OG3R60   CG2R61     9   180.000000     0.711280     1
   CG2O3   CG3RC1   OG3R60   CG2R61     9   180.000000     5.815760     2
   CG2O3   CG3RC1   OG3R60   CG2R61     9     0.000000     3.305360     3
  NG2R43   CG2D1O   CG2DC1    CG321     9   180.000000    11.966240     2
  NG2R43   CG2D1O   CG2DC1    CG331     9   180.000000    11.966240     2
  NG2R43   CG2D1O    CG2O3    OG2D2     9   180.000000     4.267680     2
  NG2R43   CG2D1O    CG2O3    OG2D2     9     0.000000     1.631760     4
  NG2R43   CG2D2O   CG2DC2    CG321     9   180.000000    11.966240     2
  NG2R43   CG2D2O   CG2DC2    CG331     9   180.000000    11.966240     2
  NG2R43   CG2D2O    CG2O3    OG2D2     9   180.000000     4.267680     2
  NG2R43   CG2D2O    CG2O3    OG2D2     9     0.000000     1.631760     4
  NG2R43   CG2R53   CG3C41    CG321     9     0.000000     7.573040     2
  NG2R43   CG2R53   CG3C41    CG321     9     0.000000     2.635920     3
  NG2R43   CG2R53   CG3C41   CG3C41     9     0.000000    12.552000     3
  NG2R43   CG2R53   CG3C41   CG3RC1     9     0.000000     0.627600     2
  NG2R43   CG2R53   CG3C41   CG3RC1     9     0.000000     4.937120     3
  NG2R43   CG2R53   CG3C41    NG321     9     0.000000    12.426480     3
  NG2R43   CG2R53   CG3C41    SG3O2     9     0.000000     2.510400     3
  NG2R43   CG2R53   CG3C41     HGA1     9     0.000000     2.384880     3
  NG2R43   CG2R53   CG3C41     HGA2     9     0.000000     2.384880     3
  NG2R43   CG2R61   CG2R61    HGR61     9   180.000000    10.041600     2
  NG2R43    CG321    CG321     HGA2     9     0.000000     0.836800     3
  NG2R43   CG3C41   CG3C41     HGA1     9     0.000000     2.384880     3
  NG2R43   CG3C41   CG3C41     HGA2     9     0.000000     2.384880     3
  NG2R43   CG3RC1    SG311    CG321     9   180.000000    36.526320     1
  NG2R43   CG3RC1    SG311    CG321     9   180.000000     3.054320     3
   NG2S0   CG2D1O   CG2DC1   CG2DC2     9   180.000000    22.342560     2
   NG2S0   CG2D1O   CG2DC1     HGA4     9   180.000000    12.894670     2
   NG2S0   CG2D1O    CG331     HGA3     9   180.000000     0.753120     3
   NG2S0   CG2D2O   CG2DC2   CG2DC1     9   180.000000    22.342560     2
   NG2S0   CG2D2O   CG2DC2     HGA4     9   180.000000    12.894670     2
   NG2S0   CG2D2O    CG331     HGA3     9   180.000000     0.753120     3
   NG2S0    CG2O1    CG2O1    NG2S1     9     0.000000     1.966480     2
   NG2S0    CG2O1    CG2O1    NG2S1     9   180.000000     5.271840     3
   NG2S0    CG2O1    CG2O1    NG2S1     9     0.000000     0.000000     6
   NG2S0    CG2O1    CG2O1    OG2D1     9   180.000000    14.811360     2
   NG2S0    CG2O1    CG2O1    OG2D1     9   180.000000     7.322000     3
   NG2S0    CG2O1    CG2O1    OG2D1     9   180.000000     0.376560     6
   NG2S0    CG2O1   CG2R61   CG2R61     9   180.000000     4.184000     2
   NG2S0    CG2O1    CG301    CG331     9     0.000000     0.000000     1
   NG2S0    CG2O1    CG301    NG2S0     9     0.000000     1.673600     1
   NG2S0    CG2O1    CG311    CG311     9     0.000000     0.000000     1
   NG2S0    CG2O1    CG311    CG321     9     0.000000     0.000000     1
   NG2S0    CG2O1    CG311    CG323     9     0.000000     0.000000     1
   NG2S0    CG2O1    CG311    CG331     9     0.000000     0.000000     1
   NG2S0    CG2O1    CG311    NG2S0     9     0.000000     1.673600     1
   NG2S0    CG2O1    CG311    NG2S1     9     0.000000     1.673600     1
   NG2S0    CG2O1    CG311    OG301     9   180.000000     0.167360     1
   NG2S0    CG2O1    CG311    OG301     9     0.000000     1.087840     3
   NG2S0    CG2O1    CG311    SG311     9     0.000000     5.313680     1
   NG2S0    CG2O1    CG311     HGA1     9     0.000000     0.000000     1
   NG2S0    CG2O1    CG314    CG311     9     0.000000     0.000000     1
   NG2S0    CG2O1    CG314    CG321     9     0.000000     0.000000     1
   NG2S0    CG2O1    CG314    CG323     9     0.000000     0.000000     1
   NG2S0    CG2O1    CG314    CG331     9     0.000000     0.000000     1
   NG2S0    CG2O1    CG314    NG3P1     9     0.000000     1.673600     1
   NG2S0    CG2O1    CG314    NG3P3     9     0.000000     1.673600     1
   NG2S0    CG2O1    CG314     HGA1     9     0.000000     0.000000     1
   NG2S0    CG2O1    CG321    CG2O1     9     0.000000     0.334720     1
   NG2S0    CG2O1    CG321    CG2O1     9   180.000000     3.305360     2
   NG2S0    CG2O1    CG321    CG2O1     9     0.000000     0.794960     3
   NG2S0    CG2O1    CG321    CG2O1     9   180.000000     3.472720     4
   NG2S0    CG2O1    CG321   CG2R51     9     0.000000    25.522400     1
   NG2S0    CG2O1    CG321   CG2R51     9     0.000000     0.418400     2
   NG2S0    CG2O1    CG321   CG2R51     9   180.000000     0.920480     3
   NG2S0    CG2O1    CG321    CG301     9     0.000000     0.000000     1
   NG2S0    CG2O1    CG321    CG321     9     0.000000     6.276000     1
   NG2S0    CG2O1    CG321    CG331     9     0.000000     6.276000     1
   NG2S0    CG2O1    CG321    NG2S0     9     0.000000     1.673600     1
   NG2S0    CG2O1    CG321    NG2S1     9     0.000000     1.673600     1
   NG2S0    CG2O1    CG321    NG311     9     0.000000     0.041840     1
   NG2S0    CG2O1    CG321    NG311     9     0.000000     0.000000     2
   NG2S0    CG2O1    CG321    OG301     9   180.000000     1.046000     1
   NG2S0    CG2O1    CG321    OG301     9   180.000000     1.757280     2
   NG2S0    CG2O1    CG321    OG301     9     0.000000     1.255200     3
   NG2S0    CG2O1    CG321   OG3C61     9   180.000000     1.338880     1
   NG2S0    CG2O1    CG321   OG3C61     9     0.000000     0.083680     2
   NG2S0    CG2O1    CG321   OG3C61     9     0.000000     4.100320     3
   NG2S0    CG2O1    CG321    SG311     9     0.000000     7.238320     1
   NG2S0    CG2O1    CG321    SG311     9     0.000000     6.108640     2
   NG2S0    CG2O1    CG321    SG311     9     0.000000    12.677520     3
   NG2S0    CG2O1    CG321     HGA2     9     0.000000     0.000000     1
   NG2S0    CG2O1    CG324    NG3P1     9     0.000000     1.673600     1
   NG2S0    CG2O1    CG324    NG3P3     9     0.000000     1.673600     1
   NG2S0    CG2O1    CG324     HGA2     9     0.000000     0.000000     1
   NG2S0    CG2O1    CG331     HGA3     9     0.000000     0.000000     3
   NG2S0    CG2O1   CG3C31    CG2O1     9     0.000000     4.769760     1
   NG2S0    CG2O1   CG3C31    CG2O1     9   180.000000    14.644000     2
   NG2S0    CG2O1   CG3C31    CG2O1     9     0.000000     5.439200     4
   NG2S0    CG2O1   CG3C31   CG3C31     9   180.000000     0.753120     1
   NG2S0    CG2O1   CG3C31   CG3C31     9     0.000000     3.891120     2
   NG2S0    CG2O1   CG3C31   CG3C31     9   180.000000     1.924640     6
   NG2S0    CG2O1   CG3C41   CG3C41     9     0.000000     5.564720     1
   NG2S0    CG2O1   CG3C41   CG3C41     9   180.000000     8.577200     2
   NG2S0    CG2O1   CG3C41   CG3C41     9   180.000000     0.878640     4
   NG2S0    CG2O1   CG3C41    NG2S1     9     0.000000     1.380720     1
   NG2S0    CG2O1   CG3C41    NG2S1     9   180.000000     0.753120     2
   NG2S0    CG2O1   CG3C41    NG2S1     9   180.000000     7.447520     4
   NG2S0    CG2O1   CG3C50    CG2O1     9     0.000000     3.179840     1
   NG2S0    CG2O1   CG3C50    CG2O1     9   180.000000     2.886960     2
   NG2S0    CG2O1   CG3C50    CG2O1     9     0.000000     1.297040     4
   NG2S0    CG2O1   CG3C50   CG3C52     9     0.000000     1.673600     1
   NG2S0    CG2O1   CG3C50   CG3C52     9     0.000000     2.510400     2
   NG2S0    CG2O1   CG3C50    NG2S1     9     0.000000     1.255200     1
   NG2S0    CG2O1   CG3C50    NG2S1     9   180.000000     1.255200     4
   NG2S0    CG2O1   CG3C51   CG3C52     9     0.000000     1.673600     1
   NG2S0    CG2O1   CG3C51   CG3C52     9     0.000000     2.510400     2
   NG2S0    CG2O1   CG3C51    NG2S0     9     0.000000     1.255200     1
   NG2S0    CG2O1   CG3C51    NG2S0     9     0.000000    -1.255200     4
   NG2S0    CG2O1   CG3C51     HGA1     9   180.000000     1.673600     1
   NG2S0    CG2O1   CG3C51     HGA1     9     0.000000     2.510400     2
   NG2S0    CG2O1   CG3C53   CG3C52     9     0.000000     1.673600     1
   NG2S0    CG2O1   CG3C53   CG3C52     9     0.000000     2.510400     2
   NG2S0    CG2O1   CG3C53    NG3P2     9     0.000000     1.255200     1
   NG2S0    CG2O1   CG3C53     HGA1     9   180.000000     1.673600     1
   NG2S0    CG2O1   CG3C53     HGA1     9     0.000000     2.510400     2
   NG2S0    CG2O1   CG3RC1   CG3C31     9   180.000000     1.213360     1
   NG2S0    CG2O1   CG3RC1   CG3C31     9   180.000000     8.326160     2
   NG2S0    CG2O1   CG3RC1   CG3C52     9     0.000000     2.008320     1
   NG2S0    CG2O1   CG3RC1   CG3C52     9   180.000000     2.970640     2
   NG2S0    CG2O1   CG3RC1   CG3C52     9     0.000000     1.715440     3
   NG2S0    CG2O1   CG3RC1   CG3RC1     9     0.000000    18.786160     1
   NG2S0    CG2O1   CG3RC1   CG3RC1     9     0.000000     0.878640     2
   NG2S0    CG2O1   CG3RC1     HGA1     9   180.000000     0.000000     1
   NG2S0    CG2O1   CG3RC1     HGA1     9     0.000000     0.000000     2
   NG2S0    CG2O6    NG2S0    CG2O1     9   180.000000     1.673600     2
   NG2S0    CG2O6    NG2S0   CG2R61     9   180.000000     5.439200     2
   NG2S0    CG2O6    NG2S0    CG321     9   180.000000     0.836800     2
   NG2S0    CG2O6    NG2S0    CG331     9   180.000000     8.368000     2
   NG2S0    CG2O6    NG2S0    SG3O2     9   180.000000     5.606560     2
   NG2S0    CG2O6    NG2S0    SG3O2     9     0.000000     1.506240     4
   NG2S0    CG2O6    NG2S1    CG2O1     9   180.000000     5.439200     2
   NG2S0    CG2O6    NG2S1    CG311     9   180.000000     5.020800     1
   NG2S0    CG2O6    NG2S1    CG311     9   180.000000     6.276000     2
   NG2S0    CG2O6    NG2S1    CG331     9   180.000000     5.020800     1
   NG2S0    CG2O6    NG2S1    CG331     9   180.000000     6.276000     2
   NG2S0    CG2O6    NG2S1     HGP1     9   180.000000     3.765600     2
   NG2S0    CG2O6    NG2S2     HGP1     9   180.000000     6.276000     2
   NG2S0    CG2O6    OG302    CG321     9   180.000000     9.204800     2
   NG2S0    CG2O6    OG302    CG321     9   180.000000     0.418400     3
   NG2S0    CG2O6    OG311     HGP1     9   180.000000     9.874240     2
   NG2S0    CG2O6   OG3R60   CG2R61     9   180.000000     2.677760     2
   NG2S0    CG2O6   OG3R60   CG2R61     9   180.000000     1.924640     3
   NG2S0    CG2O6    SG311    CG321     9   180.000000     7.740400     2
   NG2S0   CG2R61   CG2R61    NG2S0     9     0.000000     0.334720     2
   NG2S0   CG2R61   CG2R61    NG2S1     9   180.000000     0.251040     2
   NG2S0   CG2R61   CG2R61    SG3O2     9   180.000000    12.593840     2
   NG2S0   CG2R61   CG2R61    HGR61     9   180.000000    10.041600     2
   NG2S0   CG2R64   CG2RC0   CG2RC0     9   180.000000    16.736000     2
   NG2S0   CG2R64   CG2RC0   NG2R50     9   180.000000    19.246400     2
   NG2S0   CG2R64   NG2R62   CG2R64     9   180.000000    20.083200     2
   NG2S0    CG301    CG311    CG321     9     0.000000     0.836800     3
   NG2S0    CG301    CG311     HGA1     9     0.000000     0.836800     3
   NG2S0    CG301    CG321    CG321     9     0.000000     0.836800     3
   NG2S0    CG301    CG321    NG2S1     9   180.000000     2.384880     3
   NG2S0    CG301    CG321     HGA2     9     0.000000     0.836800     3
   NG2S0    CG301    CG331     HGA3     9     0.000000     0.836800     3
   NG2S0    CG311    CG311    NG2S0     9     0.000000     0.125520     3
   NG2S0    CG311    CG311    SG3O2     9     0.000000     0.041840     1
   NG2S0    CG311    CG311    SG3O2     9     0.000000     0.209200     2
   NG2S0    CG311    CG311    SG3O2     9   180.000000     0.334720     3
   NG2S0    CG311    CG311     HGA1     9     0.000000     0.836800     3
   NG2S0    CG311    CG314    CG331     9     0.000000     0.836800     3
   NG2S0    CG311    CG314    NG3P1     9     0.000000     0.836800     3
   NG2S0    CG311    CG314     HGA1     9     0.000000     0.836800     3
   NG2S0    CG311    CG321   CG2R61     9     0.000000     0.836800     3
   NG2S0    CG311    CG321    CG321     9     0.000000     0.836800     3
   NG2S0    CG311    CG321    CG324     9     0.000000     0.836800     3
   NG2S0    CG311    CG321    NG2S1     9     0.000000     2.259360     3
   NG2S0    CG311    CG321    NG301     9   180.000000     1.087840     1
   NG2S0    CG311    CG321    NG301     9   180.000000     6.652560     4
   NG2S0    CG311    CG321    SG3O2     9   180.000000     0.000000     1
   NG2S0    CG311    CG321    SG3O2     9     0.000000     0.376560     2
   NG2S0    CG311    CG321    SG3O2     9     0.000000     2.092000     3
   NG2S0    CG311    CG321     HGA2     9     0.000000     0.836800     3
   NG2S0    CG311    CG324    NG3P1     9     0.000000     0.836800     3
   NG2S0    CG311    CG324     HGA2     9     0.000000     0.836800     3
   NG2S0    CG311    CG331     HGA3     9     0.000000     0.836800     3
   NG2S0    CG311    NG2S1    CG2O1     9     0.000000    10.627360     1
   NG2S0    CG311    NG2S1    CG2O1     9     0.000000     7.196480     2
   NG2S0    CG311    NG2S1    CG2O1     9     0.000000     1.046000     3
   NG2S0    CG311    NG2S1    CG2O1     9   180.000000     2.845120     4
   NG2S0    CG311    NG2S1    CG2O1     9   180.000000     1.506240     6
   NG2S0    CG311    NG2S1     HGP1     9   180.000000     5.857600     1
   NG2S0    CG311    NG2S1     HGP1     9   180.000000     2.468560     4
   NG2S0    CG311    NG311   CG2D1O     9   180.000000    11.924400     1
   NG2S0    CG311    NG311   CG2D1O     9   180.000000     0.627600     3
   NG2S0    CG311    NG311   CG2D2O     9   180.000000    11.924400     1
   NG2S0    CG311    NG311   CG2D2O     9   180.000000     0.627600     3
   NG2S0    CG311    NG311   CG2R61     9     0.000000     3.054320     1
   NG2S0    CG311    NG311   CG2R61     9   180.000000     3.012480     3
   NG2S0    CG311    NG311   HGPAM1     9     0.000000     0.125520     2
   NG2S0    CG311    NG311   HGPAM1     9     0.000000     1.004160     3
   NG2S0    CG311    OG311     HGP1     9     0.000000     7.363840     1
   NG2S0    CG311    OG311     HGP1     9     0.000000     4.853440     2
   NG2S0    CG311    OG311     HGP1     9     0.000000     0.376560     3
   NG2S0    CG311    CG2O1      NH1     9     0.000000     2.510400     1
   NG2S0    CG311    CG2O1        N     9     0.000000     2.510400     1
   NG2S0    CG321    CG321    NG301     9   180.000000     3.891120     3
   NG2S0    CG321    CG321    NG311     9   180.000000     3.891120     3
   NG2S0    CG321    CG321   OG3C61     9     0.000000     0.041840     1
   NG2S0    CG321    CG321   OG3C61     9   180.000000     5.230000     3
   NG2S0    CG321    CG321    SG3O2     9   180.000000     3.974800     1
   NG2S0    CG321    CG321    SG3O2     9     0.000000     5.564720     2
   NG2S0    CG321    CG321    SG3O2     9   180.000000     0.334720     3
   NG2S0    CG321    CG321     HGA2     9     0.000000     0.815880     3
   NG2S0    CG321    CG324    NG3P1     9     0.000000     0.836800     3
   NG2S0    CG321    CG324     HGA2     9     0.000000     0.836800     3
   NG2S0    CG321    CG331     HGA3     9     0.000000     0.815880     3
   NG2S0    CG321   CG3C31    CG321     9     0.000000     2.259360     3
   NG2S0    CG321   CG3C31    CG321     9     0.000000     3.598240     4
   NG2S0    CG321   CG3C31   CG3C31     9     0.000000     8.409840     3
   NG2S0    CG321   CG3C31   CG3C31     9   180.000000     2.677760     4
   NG2S0    CG321   CG3C41    CG321     9     0.000000     1.673600     3
   NG2S0    CG321   CG3C41   CG3C41     9     0.000000     3.556400     3
   NG2S0    CG321    NG301    CG321     9     0.000000    19.079040     1
   NG2S0    CG321    NG301    CG321     9     0.000000     5.146320     2
   NG2S0    CG321    NG301    CG321     9   180.000000     2.259360     3
   NG2S0    CG321    NG301    CG331     9     0.000000     1.799120     1
   NG2S0    CG321    NG301    CG331     9     0.000000     0.502080     2
   NG2S0    CG321    NG301    CG331     9     0.000000     5.815760     3
   NG2S0    CG321    NG311   CG2R61     9     0.000000     1.046000     1
   NG2S0    CG321    NG311   CG2R61     9     0.000000     2.928800     2
   NG2S0    CG321    NG311   CG2R61     9     0.000000     0.125520     3
   NG2S0    CG321    NG311   HGPAM1     9   180.000000     8.451680     2
   NG2S0    CG321    NG311   HGPAM1     9   180.000000     2.677760     3
   NG2S0    CG321    CG2O1      NH1     9     0.000000     2.510400     1
   NG2S0    CG321    CG2O1        N     9     0.000000     2.510400     1
   NG2S0   CG3C31   CG3C31     HGA2     9     0.000000     0.000000     3
   NG2S0   CG3C41   CG3RC1    CG321     9     0.000000     1.757280     3
   NG2S0   CG3C41   CG3RC1    CG321     9     0.000000     1.506240     6
   NG2S0   CG3C41   CG3RC1   CG3RC1     9   180.000000     2.510400     2
   NG2S0   CG3C41   CG3RC1   CG3RC1     9     0.000000    12.719360     3
   NG2S0   CG3C41   CG3RC1     HGA1     9     0.000000     0.000000     3
   NG2S0   CG3C50   CG3C51   CG3C52     9     0.000000     0.585760     3
   NG2S0   CG3C50   CG3C51    OG311     9     0.000000    15.815520     3
   NG2S0   CG3C50   CG3C51    OG311     9     0.000000     0.836800     4
   NG2S0   CG3C50   CG3C51     HGA1     9     0.000000     0.585760     3
   NG2S0   CG3C50   CG3C52   CG2R52     9     0.000000    14.434800     3
   NG2S0   CG3C50   CG3C52   CG3C51     9     0.000000     0.585760     3
   NG2S0   CG3C50   CG3C52   CG3C52     9     0.000000     0.585760     3
   NG2S0   CG3C50   CG3C52     HGA2     9     0.000000     0.585760     3
   NG2S0   CG3C50    NG311   CG2R61     9     0.000000     6.234160     1
   NG2S0   CG3C50    NG311   CG2R61     9     0.000000     0.000000     3
   NG2S0   CG3C50    NG311   HGPAM1     9   180.000000     0.711280     2
   NG2S0   CG3C50    OG311     HGP1     9     0.000000     0.804165     1
   NG2S0   CG3C50    OG311     HGP1     9     0.000000     4.540477     2
   NG2S0   CG3C50    OG311     HGP1     9     0.000000     2.720437     3
   NG2S0   CG3C50    CG2O1      NH1     9     0.000000     1.255200     1
   NG2S0   CG3C50    CG2O1      NH1     9   180.000000     1.255200     4
   NG2S0   CG3C50    CG2O1        N     9     0.000000     2.510400     1
   NG2S0   CG3C51   CG3C52   CG2RC0     9     0.000000    14.434800     3
   NG2S0   CG3C51   CG3C52   CG3C51     9     0.000000     0.585760     3
   NG2S0   CG3C51   CG3C52   CG3C52     9     0.000000     0.585760     3
   NG2S0   CG3C51   CG3C52   CG3C54     9   180.000000     1.255200     3
   NG2S0   CG3C51   CG3C52    SG311     9   180.000000     3.409123     2
   NG2S0   CG3C51   CG3C52     HGA2     9     0.000000     0.585760     3
   NG2S0   CG3C51   CG3C53    CG321     9   180.000000     2.092000     2
   NG2S0   CG3C51   CG3C53    NG3P2     9     0.000000     0.711280     3
   NG2S0   CG3C51   CG3C53     HGA1     9     0.000000     0.585760     3
   NG2S0   CG3C51    CG2O1      NH1     9     0.000000     1.255200     1
   NG2S0   CG3C51    CG2O1      NH1     9   180.000000     1.255200     4
   NG2S0   CG3C51    CG2O1        N     9     0.000000     2.510400     1
   NG2S0   CG3C52   CG3C52     HGA2     9     0.000000     0.585760     3
   NG2S0   CG3C52   CG3RC1   CG3C52     9     0.000000     0.083680     2
   NG2S0   CG3C52   CG3RC1   CG3C52     9     0.000000     1.673600     3
   NG2S0   CG3C52   CG3RC1    SG311     9     0.000000     1.338880     2
   NG2S0   CG3C52   CG3RC1     HGA1     9     0.000000     0.627600     3
   NG2S0   CG3C52    SG311   CG3C52     9   180.000000    14.782909     1
   NG2S0   CG3C52    SG311   CG3C52     9     0.000000     2.704956     3
   NG2S0   CG3RC1   CG3RC1     HGA1     9     0.000000     0.627600     3
   NG2S0   CG3RC1    SG311   CG3C52     9   180.000000     1.046000     1
   NG2S0   CG3RC1    SG311   CG3C52     9     0.000000     2.259360     3
   NG2S0   CG3RC1    SG311   CG3C52     9     0.000000     3.389040     6
   NG2S0        C      CT1      NH3     9     0.000000     1.673600     1
   NG2S0        C      CT1      NH1     9     0.000000     1.673600     1
   NG2S0     CN7B     CN7B      CN7     9     0.000000     0.836800     3
   NG2S0     CN7B     CN7B      ON5     9     0.000000     0.836800     3
   NG2S0     CN7B     CN7B      HN7     9     0.000000     0.836800     3
   NG2S0     CN7B     ON6B      CN7     9     0.000000     0.000000     3
   NG2S1   CG2D1O   CG2DC1   CG2DC2     9   180.000000     7.573040     2
   NG2S1   CG2D1O   CG2DC1    CG2O2     9   180.000000    11.951596     2
   NG2S1   CG2D1O   CG2DC1    CG2O3     9   180.000000    11.951596     2
   NG2S1   CG2D1O   CG2DC1    CG331     9   180.000000    11.951596     2
   NG2S1   CG2D1O   CG2DC1     HGA4     9   180.000000    12.894670     2
   NG2S1   CG2D1O    CG2O1    NG2S1     9   180.000000     2.171914     2
   NG2S1   CG2D1O    CG2O1    NG2S1     9   180.000000     1.503730     3
   NG2S1   CG2D1O    CG2O1    NG2S1     9     0.000000     1.958112     6
   NG2S1   CG2D1O    CG2O1    OG2D1     9     0.000000    14.343589     2
   NG2S1   CG2D1O    CG2O1    OG2D1     9     0.000000     6.443360     3
   NG2S1   CG2D1O    CG2O1    OG2D1     9   180.000000     0.196648     6
   NG2S1   CG2D1O    CG2O1        N     9     0.000000     2.510400     1
   NG2S1   CG2D1O    CG321    CG321     9   180.000000     0.585760     1
   NG2S1   CG2D1O    CG321    CG321     9   180.000000     7.322000     2
   NG2S1   CG2D1O    CG321     HGA2     9   180.000000     0.000000     3
   NG2S1   CG2D2O   CG2DC2   CG2DC1     9   180.000000     7.573040     2
   NG2S1   CG2D2O   CG2DC2    CG2O2     9   180.000000    11.951596     2
   NG2S1   CG2D2O   CG2DC2    CG2O3     9   180.000000    11.951596     2
   NG2S1   CG2D2O   CG2DC2    CG331     9   180.000000    11.951596     2
   NG2S1   CG2D2O   CG2DC2     HGA4     9   180.000000    12.894670     2
   NG2S1   CG2D2O    CG2O1    NG2S1     9   180.000000     2.171914     2
   NG2S1   CG2D2O    CG2O1    NG2S1     9   180.000000     1.503730     3
   NG2S1   CG2D2O    CG2O1    NG2S1     9     0.000000     1.958112     6
   NG2S1   CG2D2O    CG2O1    OG2D1     9     0.000000    14.343589     2
   NG2S1   CG2D2O    CG2O1    OG2D1     9     0.000000     6.443360     3
   NG2S1   CG2D2O    CG2O1    OG2D1     9   180.000000     0.196648     6
   NG2S1   CG2D2O    CG321    CG321     9   180.000000     0.585760     1
   NG2S1   CG2D2O    CG321    CG321     9   180.000000     7.322000     2
   NG2S1   CG2D2O    CG321     HGA2     9   180.000000     0.000000     3
   NG2S1    CG2O1    CG2O1    OG2D1     9     0.000000     0.083680     2
   NG2S1    CG2O1    CG2O1    OG2D1     9     0.000000     2.133840     3
   NG2S1    CG2O1    CG2O1    OG2D1     9     0.000000     0.585760     6
   NG2S1    CG2O1   CG2R51   CG2R51     9   180.000000     4.602400     2
   NG2S1    CG2O1   CG2R51   CG2R51     9     0.000000     1.255200     4
   NG2S1    CG2O1   CG2R51   NG2R51     9   180.000000     4.602400     2
   NG2S1    CG2O1   CG2R51   NG2R51     9     0.000000     1.255200     4
   NG2S1    CG2O1   CG2R51   SG2R50     9     0.000000     0.000000     2
   NG2S1    CG2O1   CG2R51   SG2R50     9     0.000000     0.836800     4
   NG2S1    CG2O1   CG2R52   CG2R51     9   180.000000     4.602400     2
   NG2S1    CG2O1   CG2R52   CG2R51     9     0.000000     1.255200     4
   NG2S1    CG2O1   CG2R52   NG2R50     9     0.000000     0.000000     2
   NG2S1    CG2O1   CG2R52   NG2R50     9     0.000000     0.000000     4
   NG2S1    CG2O1   CG2R61   CG2R61     9   180.000000     4.184000     2
   NG2S1    CG2O1   CG2R61   CG2R64     9   180.000000     0.000000     2
   NG2S1    CG2O1   CG2R61   CG2RC0     9   180.000000     4.184000     2
   NG2S1    CG2O1   CG2R61   NG2R60     9   180.000000     6.778080     2
   NG2S1    CG2O1    CG301    CG321     9     0.000000     0.000000     1
   NG2S1    CG2O1    CG301    CG331     9     0.000000     0.000000     1
   NG2S1    CG2O1    CG301   CG3RC1     9     0.000000    24.476400     1
   NG2S1    CG2O1    CG301   CG3RC1     9     0.000000     2.301200     2
   NG2S1    CG2O1    CG301    NG3P1     9   180.000000     1.129680     1
   NG2S1    CG2O1    CG301    NG3P1     9   180.000000     1.548080     2
   NG2S1    CG2O1    CG301    SG3O2     9     0.000000     1.171520     1
   NG2S1    CG2O1    CG301    SG3O2     9   180.000000     0.083680     4
   NG2S1    CG2O1    CG311    CG2D1     9   180.000000     0.418400     1
   NG2S1    CG2O1    CG311    CG2D1     9   180.000000     6.066800     3
   NG2S1    CG2O1    CG311   CG2DC1     9     0.000000     0.000000     1
   NG2S1    CG2O1    CG311   CG2DC1     9     0.000000     0.000000     2
   NG2S1    CG2O1    CG311   CG2DC1     9   180.000000     3.723760     3
   NG2S1    CG2O1    CG311   CG2DC2     9     0.000000     0.000000     1
   NG2S1    CG2O1    CG311   CG2DC2     9     0.000000     0.000000     2
   NG2S1    CG2O1    CG311   CG2DC2     9   180.000000     3.723760     3
   NG2S1    CG2O1    CG311    CG2O3     9     0.000000     0.001674     1
   NG2S1    CG2O1    CG311    CG2O3     9     0.000000     7.399404     2
   NG2S1    CG2O1    CG311    CG2O3     9     0.000000     4.318725     3
   NG2S1    CG2O1    CG311    CG2O5     9     0.000000     0.502080     1
   NG2S1    CG2O1    CG311    CG2O5     9     0.000000     4.769760     2
   NG2S1    CG2O1    CG311    CG2O5     9     0.000000     1.171520     3
   NG2S1    CG2O1    CG311    CG2O5     9   180.000000     1.213360     4
   NG2S1    CG2O1    CG311    CG301     9     0.000000     0.000000     1
   NG2S1    CG2O1    CG311    CG302     9   180.000000     4.476880     1
   NG2S1    CG2O1    CG311    CG302     9   180.000000     0.334720     2
   NG2S1    CG2O1    CG311    CG311     9     0.000000     0.000000     1
   NG2S1    CG2O1    CG311    CG321     9     0.000000     0.000000     1
   NG2S1    CG2O1    CG311    CG323     9     0.000000     0.000000     1
   NG2S1    CG2O1    CG311    CG331     9     0.000000     0.000000     1
   NG2S1    CG2O1    CG311    NG2S0     9     0.000000     2.510400     1
   NG2S1    CG2O1    CG311    NG2S1     9     0.000000     2.510400     1
   NG2S1    CG2O1    CG311    NG301     9     0.000000    16.401280     1
   NG2S1    CG2O1    CG311    NG301     9     0.000000     1.506240     2
   NG2S1    CG2O1    CG311    NG311     9     0.000000    19.204560     1
   NG2S1    CG2O1    CG311    NG311     9     0.000000     1.004160     2
   NG2S1    CG2O1    CG311   NG3C51     9   180.000000    11.464160     1
   NG2S1    CG2O1    CG311   NG3C51     9     0.000000     0.209200     6
   NG2S1    CG2O1    CG311    OG311     9     0.000000    10.746186     1
   NG2S1    CG2O1    CG311    OG311     9     0.000000     1.908741     3
   NG2S1    CG2O1    CG311   OG3C61     9     0.000000     5.397360     1
   NG2S1    CG2O1    CG311   OG3C61     9     0.000000     0.000000     2
   NG2S1    CG2O1    CG311   OG3C61     9   180.000000     1.631760     3
   NG2S1    CG2O1    CG311    SG311     9     0.000000     5.319956     1
   NG2S1    CG2O1    CG311     HGA1     9     0.000000     0.000000     1
   NG2S1    CG2O1    CG312    CG311     9   180.000000     0.460240     1
   NG2S1    CG2O1    CG312    CG311     9   180.000000     0.000000     4
   NG2S1    CG2O1    CG312    CG321     9     0.000000     0.000000     1
   NG2S1    CG2O1    CG312    CG321     9     0.000000     0.125520     4
   NG2S1    CG2O1    CG312     FGA2     9   180.000000     0.878640     2
   NG2S1    CG2O1    CG312     FGA2     9     0.000000     0.209200     6
   NG2S1    CG2O1    CG314    CG311     9     0.000000     0.000000     1
   NG2S1    CG2O1    CG314    CG321     9     0.000000     0.000000     1
   NG2S1    CG2O1    CG314    CG323     9     0.000000     0.000000     1
   NG2S1    CG2O1    CG314    CG331     9     0.000000     0.000000     1
   NG2S1    CG2O1    CG314    NG3P3     9     0.000000     2.510400     1
   NG2S1    CG2O1    CG314     HGA1     9     0.000000     0.000000     1
   NG2S1    CG2O1    CG321    CG2D1     9     0.000000     2.845120     1
   NG2S1    CG2O1    CG321    CG2D1     9     0.000000     0.000000     2
   NG2S1    CG2O1    CG321    CG2D1     9     0.000000     2.552240     3
   NG2S1    CG2O1    CG321   CG2DC1     9     0.000000    11.464160     1
   NG2S1    CG2O1    CG321   CG2DC1     9     0.000000     0.000000     2
   NG2S1    CG2O1    CG321   CG2DC1     9   180.000000     1.966480     3
   NG2S1    CG2O1    CG321   CG2DC2     9     0.000000    11.464160     1
   NG2S1    CG2O1    CG321   CG2DC2     9     0.000000     0.000000     2
   NG2S1    CG2O1    CG321   CG2DC2     9   180.000000     1.966480     3
   NG2S1    CG2O1    CG321    CG2O1     9     0.000000    12.552000     1
   NG2S1    CG2O1    CG321    CG2O1     9     0.000000     7.824080     2
   NG2S1    CG2O1    CG321    CG2O1     9   180.000000     1.171520     3
   NG2S1    CG2O1    CG321    CG2O1     9     0.000000     0.209200     4
   NG2S1    CG2O1    CG321    CG2O5     9     0.000000     0.920480     1
   NG2S1    CG2O1    CG321    CG2O5     9     0.000000     0.000000     2
   NG2S1    CG2O1    CG321    CG2O5     9     0.000000     0.125520     3
   NG2S1    CG2O1    CG321   CG2R51     9   180.000000     0.878640     1
   NG2S1    CG2O1    CG321   CG2R51     9     0.000000     2.301200     3
   NG2S1    CG2O1    CG321   CG2R61     9   180.000000     0.878640     1
   NG2S1    CG2O1    CG321   CG2R61     9     0.000000     2.301200     3
   NG2S1    CG2O1    CG321    CG311     9     0.000000     0.000000     1
   NG2S1    CG2O1    CG321    CG321     9     0.000000     0.000000     1
   NG2S1    CG2O1    CG321    CG324     9   180.000000     0.209200     6
   NG2S1    CG2O1    CG321    CG331     9     0.000000     0.000000     1
   NG2S1    CG2O1    CG321   NG2R51     9     0.000000     2.449314     1
   NG2S1    CG2O1    CG321   NG2R53     9     0.000000     2.510400     1
   NG2S1    CG2O1    CG321    NG2S0     9     0.000000     2.510400     1
   NG2S1    CG2O1    CG321    NG2S1     9     0.000000     2.510400     1
   NG2S1    CG2O1    CG321    NG301     9     0.000000     1.087840     1
   NG2S1    CG2O1    CG321    NG301     9     0.000000     0.000000     2
   NG2S1    CG2O1    CG321    OG301     9   180.000000     2.677760     1
   NG2S1    CG2O1    CG321    OG301     9   180.000000     5.271840     2
   NG2S1    CG2O1    CG321    OG301     9     0.000000     4.393200     3
   NG2S1    CG2O1    CG321    SG311     9     0.000000     7.229115     1
   NG2S1    CG2O1    CG321    SG311     9     0.000000     6.099017     2
   NG2S1    CG2O1    CG321    SG311     9     0.000000    12.675428     3
   NG2S1    CG2O1    CG321    SG3O2     9     0.000000     0.376560     1
   NG2S1    CG2O1    CG321    SG3O2     9   180.000000     0.167360     2
   NG2S1    CG2O1    CG321    SG3O2     9     0.000000     1.589920     3
   NG2S1    CG2O1    CG321    SG3O2     9   180.000000     2.886960     4
   NG2S1    CG2O1    CG321     HGA1     9     0.000000     0.000000     1
   NG2S1    CG2O1    CG321     HGA2     9     0.000000     0.000000     3
   NG2S1    CG2O1    CG322    CG321     9     0.000000    11.547840     1
   NG2S1    CG2O1    CG322    CG321     9     0.000000     2.175680     2
   NG2S1    CG2O1    CG322     FGA1     9     0.000000     3.723760     2
   NG2S1    CG2O1    CG322     FGA1     9   180.000000     1.004160     4
   NG2S1    CG2O1    CG322     HGA6     9     0.000000     0.000000     2
   NG2S1    CG2O1    CG322     HGA6     9     0.000000     2.343040     3
   NG2S1    CG2O1    CG324    NG3P3     9     0.000000     1.673600     1
   NG2S1    CG2O1    CG324     HGA2     9     0.000000     0.000000     3
   NG2S1    CG2O1    CG331     HGA3     9     0.000000     0.000000     3
   NG2S1    CG2O1   CG3C50    CG2O1     9     0.000000     4.937120     1
   NG2S1    CG2O1   CG3C50    CG2O1     9     0.000000     1.338880     2
   NG2S1    CG2O1   CG3C50    CG2O1     9     0.000000     2.426720     4
   NG2S1    CG2O1   CG3C50   CG3C52     9     0.000000     1.673600     1
   NG2S1    CG2O1   CG3C50   CG3C52     9     0.000000     2.510400     2
   NG2S1    CG2O1   CG3C50    NG2S0     9     0.000000     1.255200     1
   NG2S1    CG2O1   CG3C50    NG2S0     9   180.000000     1.255200     4
   NG2S1    CG2O1   CG3C50    OG311     9     0.000000     0.778224     1
   NG2S1    CG2O1   CG3C51   CG2R51     9     0.000000     1.388251     1
   NG2S1    CG2O1   CG3C51   CG2R51     9     0.000000     0.174054     2
   NG2S1    CG2O1   CG3C51   CG3C51     9     0.000000     1.673600     1
   NG2S1    CG2O1   CG3C51   CG3C51     9     0.000000     2.510400     2
   NG2S1    CG2O1   CG3C51   CG3C52     9     0.000000     1.673600     1
   NG2S1    CG2O1   CG3C51   CG3C52     9     0.000000     2.510400     2
   NG2S1    CG2O1   CG3C51   CG3C53     9   180.000000     2.343040     1
   NG2S1    CG2O1   CG3C51   CG3C53     9     0.000000     2.510400     2
   NG2S1    CG2O1   CG3C51   CG3C53     9     0.000000     4.686080     3
   NG2S1    CG2O1   CG3C51    NG2S0     9     0.000000     1.255200     1
   NG2S1    CG2O1   CG3C51    NG2S0     9     0.000000    -1.255200     4
   NG2S1    CG2O1   CG3C51   NG3C51     9   180.000000     2.479020     1
   NG2S1    CG2O1   CG3C51   NG3C51     9   180.000000    12.047410     2
   NG2S1    CG2O1   CG3C51   NG3C51     9   180.000000     1.751004     3
   NG2S1    CG2O1   CG3C51     HGA1     9   180.000000     1.673600     1
   NG2S1    CG2O1   CG3C51     HGA1     9     0.000000     2.510400     2
   NG2S1    CG2O1   CG3C53   CG3C52     9     0.000000     1.673600     1
   NG2S1    CG2O1   CG3C53   CG3C52     9     0.000000     2.510400     2
   NG2S1    CG2O1   CG3C53    NG3P2     9     0.000000     1.255200     1
   NG2S1    CG2O1   CG3C53     HGA1     9   180.000000     1.673600     1
   NG2S1    CG2O1   CG3C53     HGA1     9     0.000000     2.510400     2
   NG2S1    CG2O1   CG3RC1   CG3C52     9   180.000000     9.581360     1
   NG2S1    CG2O1   CG3RC1   CG3C52     9     0.000000     1.338880     2
   NG2S1    CG2O1   CG3RC1    NG2S0     9     0.000000    41.463440     1
   NG2S1    CG2O1   CG3RC1    NG2S0     9     0.000000     0.251040     2
   NG2S1    CG2O1   CG3RC1    NG2S0     9   180.000000     1.255200     4
   NG2S1    CG2O1   CG3RC1     HGA1     9   180.000000     0.000000     1
   NG2S1    CG2O1   CG3RC1     HGA1     9     0.000000     0.000000     2
   NG2S1    CG2O6    NG2D1   CG2DC1     9     0.000000     0.041840     2
   NG2S1    CG2O6    NG2D1   CG2DC2     9     0.000000     0.041840     2
   NG2S1    CG2O6    NG2D1   CG2R64     9   180.000000     7.865920     2
   NG2S1    CG2O6   NG2R51   CG2R51     9   180.000000     5.983120     2
   NG2S1    CG2O6   NG2R51   CG2R51     9     0.000000     0.753120     4
   NG2S1    CG2O6   NG2R52   CG2R51     9     0.000000     0.000000     2
   NG2S1    CG2O6   NG2R52   CG2R53     9   180.000000     3.138000     2
   NG2S1    CG2O6    NG2S0    CG2O1     9   180.000000     5.857600     2
   NG2S1    CG2O6    NG2S0   CG2R61     9   180.000000     5.439200     2
   NG2S1    CG2O6    NG2S0   CG2R64     9   180.000000     5.439200     2
   NG2S1    CG2O6    NG2S0    CG321     9   180.000000     0.836800     2
   NG2S1    CG2O6    NG2S0    CG331     9   180.000000     8.368000     2
   NG2S1    CG2O6    NG2S0   OG3C61     9   180.000000     2.259360     2
   NG2S1    CG2O6    NG2S0   OG3C61     9     0.000000     0.711280     4
   NG2S1    CG2O6    NG2S0     CN7B     9   180.000000    13.388800     2
   NG2S1    CG2O6    NG2S1    CG2O1     9   180.000000     5.439200     2
   NG2S1    CG2O6    NG2S1   CG2R61     9   180.000000     6.694400     2
   NG2S1    CG2O6    NG2S1   CG2R61     9     0.000000     2.928800     3
   NG2S1    CG2O6    NG2S1   CG2R64     9   180.000000     8.368000     1
   NG2S1    CG2O6    NG2S1   CG2R64     9   180.000000     4.602400     2
   NG2S1    CG2O6    NG2S1   CG2R64     9     0.000000     2.928800     3
   NG2S1    CG2O6    NG2S1    CG301     9     0.000000     3.347200     1
   NG2S1    CG2O6    NG2S1    CG311     9     0.000000     3.347200     1
   NG2S1    CG2O6    NG2S1    CG321     9     0.000000     3.347200     1
   NG2S1    CG2O6    NG2S1    CG331     9     0.000000     6.694400     1
   NG2S1    CG2O6    NG2S1    CG331     9   180.000000    10.460000     2
   NG2S1    CG2O6    NG2S1    NG2S1     9   180.000000    11.171280     2
   NG2S1    CG2O6    NG2S1    NG2S1     9     0.000000     3.891120     3
   NG2S1    CG2O6    NG2S1     HGP1     9   180.000000     6.276000     2
   NG2S1    CG2O6    NG2S2     HGP1     9   180.000000     6.276000     2
   NG2S1    CG2O6    OG302    CG321     9   180.000000     0.627600     1
   NG2S1    CG2O6    OG302    CG321     9   180.000000     9.204800     2
   NG2S1    CG2O6    OG302    CG321     9   180.000000     0.418400     3
   NG2S1    CG2O6    OG302    CG331     9     0.000000     1.046000     1
   NG2S1    CG2O6    OG302    CG331     9   180.000000     7.740400     2
   NG2S1    CG2O6    OG302    CG331     9   180.000000     0.502080     3
   NG2S1    CG2O6   OG3R60    CG301     9   180.000000     5.062640     1
   NG2S1    CG2O6   OG3R60    CG301     9   180.000000     6.359680     2
   NG2S1    CG2O6   OG3R60    CG301     9     0.000000     3.430880     3
   NG2S1    CG2O6   OG3R60    CG311     9   180.000000     0.543920     1
   NG2S1    CG2O6   OG3R60    CG311     9     0.000000     0.000000     2
   NG2S1    CG2O6   OG3R60    CG311     9   180.000000     2.175680     3
   NG2S1    CG2O6   OG3R60    CG321     9   180.000000     0.209200     1
   NG2S1    CG2O6   OG3R60    CG321     9   180.000000     5.941280     2
   NG2S1    CG2O6   OG3R60    CG321     9     0.000000     2.384880     3
   NG2S1    CG2O6    SG311    CG321     9   180.000000     7.740400     2
   NG2S1   CG2R51   CG3C52   OG3C51     9     0.000000     0.000000     1
   NG2S1   CG2R51   CG3C52   OG3C51     9   180.000000    19.999520     2
   NG2S1   CG2R51   CG3C52   OG3C51     9   180.000000     0.418400     3
   NG2S1   CG2R51   CG3C52     HGA2     9     0.000000     0.000000     3
   NG2S1   CG2R53   NG2R50   NG2R51     9   180.000000    21.212880     2
   NG2S1   CG2R61   CG2R61    NG301     9   180.000000     8.535360     2
   NG2S1   CG2R61   CG2R61    NG311     9   180.000000    12.761200     2
   NG2S1   CG2R61   CG2R61    OG301     9   180.000000    10.041600     2
   NG2S1   CG2R61   CG2R61    OG311     9   180.000000    10.041600     2
   NG2S1   CG2R61   CG2R61    SG311     9   180.000000     7.573040     2
   NG2S1   CG2R61   CG2R61    HGR61     9   180.000000    10.041600     2
   NG2S1   CG2R61   CG2R61    HGR62     9   180.000000    10.041600     2
   NG2S1   CG2R61   CG2R66   CG2R61     9   180.000000    12.970400     2
   NG2S1   CG2R61   CG2R66     FGR1     9   180.000000    10.041600     2
   NG2S1   CG2R61   CG2RC0   CG2RC0     9   180.000000     6.276000     2
   NG2S1   CG2R61   CG2RC0   NG3C51     9     0.000000     0.920480     2
   NG2S1   CG2R62   CG2R62    NG311     9   180.000000    12.510160     2
   NG2S1   CG2R62   CG2R62    HGR63     9     0.000000     0.041840     2
   NG2S1   CG2R64   CG2RC0   CG2RC0     9   180.000000    12.970400     2
   NG2S1   CG2R64   CG2RC0   NG2R50     9   180.000000     0.000000     2
   NG2S1   CG2R64   NG2R60   CG2R61     9   180.000000    12.970400     2
   NG2S1   CG2R64   NG2R61   CG2R63     9   180.000000    16.736000     2
   NG2S1   CG2R64   NG2R61    CG311     9   180.000000    10.460000     2
   NG2S1   CG2R64   NG2R62   CG2R62     9   180.000000     8.368000     2
   NG2S1   CG2R64   NG2R62   CG2R63     9   180.000000     8.368000     2
   NG2S1   CG2R64   NG2R62   CG2R64     9   180.000000     8.368000     2
   NG2S1   CG2R71   CG2RC7   CG2R51     9     0.000000     0.000000     2
   NG2S1   CG2R71   CG2RC7   CG2R53     9   180.000000    15.690000     2
   NG2S1    CG301    CG311    CG2O5     9     0.000000     2.217520     3
   NG2S1    CG301    CG311   CG2R61     9   180.000000     0.000000     3
   NG2S1    CG301    CG311    CG311     9     0.000000     0.836800     3
   NG2S1    CG301    CG311    CG321     9     0.000000     0.836800     3
   NG2S1    CG301    CG311    NG301     9     0.000000     0.209200     1
   NG2S1    CG301    CG311    NG301     9     0.000000     6.861760     4
   NG2S1    CG301    CG311    OG311     9     0.000000     0.836800     3
   NG2S1    CG301    CG311     HGA1     9     0.000000     0.836800     3
   NG2S1    CG301    CG314    CG321     9     0.000000     0.836800     3
   NG2S1    CG301    CG314    NG3P1     9     0.000000     3.765600     3
   NG2S1    CG301    CG314     HGA1     9     0.000000     0.836800     3
   NG2S1    CG301    CG321    CG2O5     9     0.000000     1.924640     3
   NG2S1    CG301    CG321   CG2R51     9     0.000000     0.836800     3
   NG2S1    CG301    CG321    CG321     9     0.000000     0.836800     3
   NG2S1    CG301    CG321    NG301     9   180.000000     0.711280     1
   NG2S1    CG301    CG321    NG301     9     0.000000     1.338880     3
   NG2S1    CG301    CG321     HGA2     9     0.000000     0.836800     3
   NG2S1    CG301    CG331     HGA3     9     0.000000     0.836800     3
   NG2S1    CG301    OG311     HGP1     9   180.000000     1.297040     1
   NG2S1    CG301    OG311     HGP1     9     0.000000     3.514560     2
   NG2S1    CG301    OG311     HGP1     9     0.000000     2.970640     3
   NG2S1    CG311    CG311    NG311     9     0.000000     0.125520     1
   NG2S1    CG311    CG311    NG311     9   180.000000     0.585760     3
   NG2S1    CG311    CG311    NG321     9   180.000000     7.112800     1
   NG2S1    CG311    CG311    NG321     9   180.000000     2.301200     3
   NG2S1    CG311    CG311    OG301     9   180.000000     7.531200     1
   NG2S1    CG311    CG311    OG311     9     0.000000     0.836800     3
   NG2S1    CG311    CG311     HGA1     9     0.000000     0.836800     3
   NG2S1    CG311    CG314    CG321     9     0.000000     0.836800     3
   NG2S1    CG311    CG314    NG3P3     9     0.000000     0.836800     3
   NG2S1    CG311    CG314     HGA1     9     0.000000     0.836800     3
   NG2S1    CG311    CG321    CG2D1     9   180.000000     4.602400     2
   NG2S1    CG311    CG321    CG2D1     9   180.000000     0.502080     3
   NG2S1    CG311    CG321   CG2DC1     9   180.000000     3.389040     3
   NG2S1    CG311    CG321   CG2DC2     9   180.000000     3.389040     3
   NG2S1    CG311    CG321    CG2O1     9     0.000000     0.836800     3
   NG2S1    CG311    CG321    CG2O3     9     0.000000     0.836800     3
   NG2S1    CG311    CG321   CG2R51     9     0.000000     0.836800     3
   NG2S1    CG311    CG321   CG2R61     9     0.000000     0.836800     3
   NG2S1    CG311    CG321    CG301     9     0.000000     0.836800     3
   NG2S1    CG311    CG321    CG311     9     0.000000     0.836800     3
   NG2S1    CG311    CG321    CG321     9     0.000000     0.836800     3
   NG2S1    CG311    CG321    CG324     9     0.000000     0.836800     3
   NG2S1    CG311    CG321    NG2S0     9     0.000000     1.171520     3
   NG2S1    CG311    CG321    OG311     9     0.000000     0.836800     3
   NG2S1    CG311    CG321    SG311     9     0.000000     0.836800     3
   NG2S1    CG311    CG321     HGA2     9     0.000000     0.836800     3
   NG2S1    CG311    CG324    NG3P1     9     0.000000     0.836800     3
   NG2S1    CG311    CG324    NG3P2     9     0.000000     0.815880     3
   NG2S1    CG311    CG324     HGA2     9     0.000000     0.836800     3
   NG2S1    CG311    CG331     HGA3     9     0.000000     0.836800     3
   NG2S1    CG311    NG2S0    CG2O1     9   180.000000     1.464400     1
   NG2S1    CG311    NG2S0    CG2O1     9   180.000000     0.585760     4
   NG2S1    CG311    NG2S0    CG321     9     0.000000     0.125520     1
   NG2S1    CG311    NG2S0    CG321     9     0.000000     1.380720     2
   NG2S1    CG311    NG2S0    CG321     9   180.000000     4.937120     3
   NG2S1    CG311    NG2S1    CG2O6     9   180.000000    22.802800     1
   NG2S1    CG311    NG2S1    CG2O6     9     0.000000     0.125520     2
   NG2S1    CG311    NG2S1     HGP1     9     0.000000     0.753120     1
   NG2S1    CG311    NG2S1     HGP1     9     0.000000     4.476880     2
   NG2S1    CG311    NG301   CG2R61     9     0.000000     1.631760     1
   NG2S1    CG311    NG301   CG2R61     9     0.000000     3.723760     3
   NG2S1    CG311    NG301    CG331     9     0.000000     1.757280     1
   NG2S1    CG311    NG301    CG331     9   180.000000     0.962320     2
   NG2S1    CG311    NG301    CG331     9   180.000000    13.388800     3
   NG2S1    CG311    NG311   CG2R51     9     0.000000     0.418400     1
   NG2S1    CG311    NG311   CG2R51     9     0.000000     4.100320     3
   NG2S1    CG311    NG311   HGPAM1     9     0.000000     2.050160     3
   NG2S1    CG311   OG3R60   CG2R61     9   180.000000     6.987280     3
   NG2S1    CG311    SG3O2    CG331     9     0.000000     6.778080     1
   NG2S1    CG311    SG3O2    CG331     9     0.000000     2.301200     2
   NG2S1    CG311    SG3O2    CG331     9     0.000000     2.803280     3
   NG2S1    CG311    SG3O2    OG2P1     9     0.000000     1.087840     3
   NG2S1    CG311    CG2O1      NH1     9     0.000000     2.510400     1
   NG2S1    CG311    CG2O1        N     9     0.000000     2.510400     1
   NG2S1    CG321    CG321    NG301     9     0.000000     2.845120     3
   NG2S1    CG321    CG321    NG301     9   180.000000     0.167360     4
   NG2S1    CG321    CG321    NG301     9   180.000000     8.660880     6
   NG2S1    CG321    CG321    OG301     9   180.000000     7.531200     1
   NG2S1    CG321    CG321    SG311     9     0.000000     0.836800     3
   NG2S1    CG321    CG321    SG3O1     9   180.000000     3.974800     1
   NG2S1    CG321    CG321    SG3O1     9     0.000000     5.564720     2
   NG2S1    CG321    CG321    SG3O1     9   180.000000     0.334720     3
   NG2S1    CG321    CG321     HGA2     9     0.000000     0.815880     3
   NG2S1    CG321    CG324    NG3P1     9     0.000000     0.836800     3
   NG2S1    CG321    CG324     HGA2     9     0.000000     0.836800     3
   NG2S1    CG321    CG331     HGA3     9     0.000000     0.815880     3
   NG2S1    CG321    NG301    CG321     9     0.000000     8.158800     1
   NG2S1    CG321    NG301    CG321     9     0.000000    13.346960     2
   NG2S1    CG321    NG301    CG321     9   180.000000     0.292880     3
   NG2S1    CG321    NG301    CG331     9   180.000000     5.815760     1
   NG2S1    CG321    NG301    CG331     9   180.000000     2.970640     2
   NG2S1    CG321    NG301    CG331     9     0.000000     0.585760     3
   NG2S1    CG321    CG2O1      NH1     9     0.000000     2.510400     1
   NG2S1    CG321    CG2O1        N     9     0.000000     2.510400     1
   NG2S1    CG321      CT1        C     9     0.000000     0.836800     3
   NG2S1    CG321      CT1      NH1     9   180.000000     0.572371     1
   NG2S1    CG321      CT1      NH1     9     0.000000     1.333022     2
   NG2S1    CG321      CT1      NH1     9     0.000000     1.673182     3
   NG2S1   CG3C41   CG3C41     HGA2     9     0.000000     0.000000     3
   NG2S1   CG3C50   CG3C52   CG3C52     9     0.000000     0.585760     3
   NG2S1   CG3C50   CG3C52   OG3C51     9   180.000000     9.706880     2
   NG2S1   CG3C50   CG3C52   OG3C51     9   180.000000     6.527040     3
   NG2S1   CG3C50   CG3C52     HGA2     9     0.000000     0.585760     3
   NG2S1   CG3C50    NG311   CG2R61     9   180.000000     0.209200     1
   NG2S1   CG3C50    NG311   CG2R61     9   180.000000     0.000000     3
   NG2S1   CG3C50    NG311   HGPAM1     9     0.000000     0.167360     2
   NG2S1   CG3C51   CG3C52   CG2R53     9     0.000000    14.425595     3
   NG2S1   CG3C51   CG3C52     HGA2     9     0.000000     0.585760     3
   NG2S1        C      CT1      NH3     9     0.000000     2.510400     1
   NG2S1        C      CT1      NH1     9     0.000000     2.510400     1
   OG311   CG2D1O   CG2DC1    CG2O5     9   180.000000     6.283531     1
   OG311   CG2D1O   CG2DC1    CG2O5     9   180.000000    30.850724     2
   OG311   CG2D1O   CG2DC1    CG321     9   180.000000    44.099360     2
   OG311   CG2D1O   CG2DC1     HGA4     9   180.000000    12.552000     2
   OG311   CG2D1O   CG2DC2   CG2D2O     9   180.000000    23.179360     2
   OG311   CG2D1O   CG2DC2     HGA4     9   180.000000     2.217520     2
   OG311   CG2D1O    CG2O5   CG2DC1     9   180.000000     5.844211     2
   OG311   CG2D1O    CG2O5    OG2D3     9   180.000000     6.204454     2
   OG311   CG2D1O   CG2R61   CG2R61     9   180.000000    21.631280     2
   OG311   CG2D1O   CG2R61   NG2R61     9   180.000000     4.895280     2
   OG311   CG2D1O   CG2R61   OG3R60     9   180.000000    23.137520     2
   OG311   CG2D1O    CG311   CG2D1O     9   180.000000     8.116960     2
   OG311   CG2D1O    CG311   CG2D1O     9   180.000000     7.238320     3
   OG311   CG2D1O    CG311    CG331     9   180.000000     3.347200     2
   OG311   CG2D1O    CG311    CG331     9   180.000000     0.794960     6
   OG311   CG2D1O    CG311     HGA1     9   180.000000     0.000000     6
   OG311   CG2D1O    CG321    CG321     9     0.000000     1.046000     2
   OG311   CG2D1O    CG321    CG321     9   180.000000     4.184000     6
   OG311   CG2D1O    CG321     HGA2     9   180.000000     0.000000     6
   OG311   CG2D1O    CG331     HGA3     9   180.000000     0.000000     6
   OG311   CG2D1O    NG2D1    CG2O6     9     0.000000     0.292880     1
   OG311   CG2D1O    NG2D1    CG2O6     9   180.000000    31.087120     2
   OG311   CG2D2O   CG2DC1   CG2D1O     9   180.000000    23.179360     2
   OG311   CG2D2O   CG2DC1     HGA4     9   180.000000     2.217520     2
   OG311   CG2D2O   CG2DC2    CG2O5     9   180.000000     6.283531     1
   OG311   CG2D2O   CG2DC2    CG2O5     9   180.000000    30.850724     2
   OG311   CG2D2O   CG2DC2    CG321     9   180.000000    44.099360     2
   OG311   CG2D2O   CG2DC2     HGA4     9   180.000000    12.552000     2
   OG311   CG2D2O    CG2O5   CG2DC2     9   180.000000     5.844211     2
   OG311   CG2D2O    CG2O5    OG2D3     9   180.000000     6.204454     2
   OG311   CG2D2O   CG2R61   CG2R61     9   180.000000    21.631280     2
   OG311   CG2D2O   CG2R61   NG2R61     9   180.000000     4.895280     2
   OG311   CG2D2O   CG2R61   OG3R60     9   180.000000    23.137520     2
   OG311   CG2D2O    CG311   CG2D2O     9   180.000000     8.116960     2
   OG311   CG2D2O    CG311   CG2D2O     9   180.000000     7.238320     3
   OG311   CG2D2O    CG311    CG331     9   180.000000     3.347200     2
   OG311   CG2D2O    CG311    CG331     9   180.000000     0.794960     6
   OG311   CG2D2O    CG311     HGA1     9   180.000000     0.000000     6
   OG311   CG2D2O    CG321    CG321     9     0.000000     1.046000     2
   OG311   CG2D2O    CG321    CG321     9   180.000000     4.184000     6
   OG311   CG2D2O    CG321     HGA2     9   180.000000     0.000000     6
   OG311   CG2D2O    CG331     HGA3     9   180.000000     0.000000     6
   OG311   CG2D2O    NG2D1    CG2O6     9     0.000000     0.292880     1
   OG311   CG2D2O    NG2D1    CG2O6     9   180.000000    31.087120     2
   OG311    CG2O2   CG2R51   CG2R51     9   180.000000     5.564720     2
   OG311    CG2O2   CG2R51   SG2R50     9   180.000000     4.476880     2
   OG311    CG2O2   CG2R52   CG2R51     9   180.000000    11.840720     2
   OG311    CG2O2   CG2R52   CG2RC0     9   180.000000     5.899440     2
   OG311    CG2O2   CG2R52   NG2R50     9   180.000000     2.803280     1
   OG311    CG2O2   CG2R52   NG2R50     9     0.000000     0.376560     2
   OG311    CG2O2   CG2R53   NG2R50     9   180.000000     9.748720     2
   OG311    CG2O2   CG2R53   SG2R50     9   180.000000     5.690240     2
   OG311    CG2O2   CG2R61   CG2R61     9   180.000000     4.288600     2
   OG311    CG2O2   CG2R61   CG2R62     9   180.000000     4.267680     2
   OG311    CG2O2   CG2R61   CG2R63     9   180.000000     4.267680     2
   OG311    CG2O2   CG2R61   CG2RC0     9   180.000000     4.267680     2
   OG311    CG2O2   CG2R61   NG2R60     9     0.000000     0.251040     2
   OG311    CG2O2   CG2R61   NG2R60     9   180.000000    15.941040     3
   OG311    CG2O2   CG2R61   NG2R62     9   180.000000     4.853440     2
   OG311    CG2O2   CG2R61   NG2R62     9   180.000000     7.363840     3
   OG311    CG2O2   CG2R62   CG2R62     9   180.000000     4.267680     2
   OG311    CG2O2   CG2R62   CG2R63     9   180.000000     4.267680     2
   OG311    CG2O2   CG2R62   NG2R61     9     0.000000     0.669440     2
   OG311    CG2O2   CG2R62   OG3R60     9   180.000000     2.259360     2
   OG311    CG2O2   CG2R64   NG2R61     9   180.000000     3.807440     2
   OG311    CG2O2   CG2R64   NG2R61     9     0.000000    10.711040     3
   OG311    CG2O2   CG2R64   NG2R62     9   180.000000     9.288480     2
   OG311    CG2O2   CG2R64   NG2R62     9   180.000000     6.694400     3
   OG311    CG2O2    CG301    CG311     9   180.000000     0.209200     6
   OG311    CG2O2    CG301    CG321     9   180.000000     0.209200     6
   OG311    CG2O2    CG301    CG331     9   180.000000     0.209200     6
   OG311    CG2O2    CG301    NG321     9   180.000000     0.000000     6
   OG311    CG2O2    CG311   CG2DC1     9   180.000000     0.000000     2
   OG311    CG2O2    CG311   CG2DC1     9   180.000000     3.472720     3
   OG311    CG2O2    CG311   CG2DC2     9   180.000000     0.000000     2
   OG311    CG2O2    CG311   CG2DC2     9   180.000000     3.472720     3
   OG311    CG2O2    CG311    CG2O3     9   180.000000    14.097570     1
   OG311    CG2O2    CG311    CG2O3     9   180.000000    12.362046     2
   OG311    CG2O2    CG311    CG2O5     9   180.000000     5.146320     1
   OG311    CG2O2    CG311    CG2O5     9   180.000000     0.794960     2
   OG311    CG2O2    CG311    CG2O5     9     0.000000     1.380720     6
   OG311    CG2O2    CG311   CG2R53     9   180.000000    17.196240     2
   OG311    CG2O2    CG311   CG2R53     9   180.000000     3.807440     3
   OG311    CG2O2    CG311   CG2R53     9     0.000000    13.095920     6
   OG311    CG2O2    CG311   CG2R61     9   180.000000     3.891120     2
   OG311    CG2O2    CG311   CG2R61     9   180.000000     0.502080     3
   OG311    CG2O2    CG311   CG2R62     9   180.000000     3.891120     2
   OG311    CG2O2    CG311   CG2R62     9   180.000000     0.502080     3
   OG311    CG2O2    CG311    CG301     9   180.000000     0.209200     6
   OG311    CG2O2    CG311    CG311     9   180.000000     0.209200     6
   OG311    CG2O2    CG311    CG321     9   180.000000     0.209200     6
   OG311    CG2O2    CG311   CG3RC1     9   180.000000     2.217520     4
   OG311    CG2O2    CG311   CG3RC1     9     0.000000     2.928800     6
   OG311    CG2O2    CG311   NG2R51     9     0.000000     0.000000     1
   OG311    CG2O2    CG311   NG2R53     9     0.000000     0.000000     1
   OG311    CG2O2    CG311    NG2S1     9     0.000000     0.000000     1
   OG311    CG2O2    CG311    NG321     9   180.000000     0.000000     6
   OG311    CG2O2    CG311    OG311     9   180.000000     1.924640     2
   OG311    CG2O2    CG311     HGA1     9   180.000000     0.209200     6
   OG311    CG2O2    CG321   CG2R61     9   180.000000     3.891120     2
   OG311    CG2O2    CG321   CG2R61     9   180.000000     0.502080     3
   OG311    CG2O2    CG321   CG2R62     9   180.000000     3.891120     2
   OG311    CG2O2    CG321   CG2R62     9   180.000000     0.502080     3
   OG311    CG2O2    CG321    CG311     9   180.000000     0.000000     6
   OG311    CG2O2    CG321    NG2S1     9     0.000000     0.000000     1
   OG311    CG2O2    CG321    NG311     9   180.000000     0.000000     6
   OG311    CG2O2    CG321    NG321     9   180.000000     0.000000     6
   OG311    CG2O2    CG321    OG301     9   180.000000     0.711280     1
   OG311    CG2O2    CG321    OG301     9   180.000000     1.924640     2
   OG311    CG2O2    CG321     HGA2     9   180.000000     0.000000     6
   OG311    CG2O2    CG331     HGA3     9   180.000000     0.000000     6
   OG311    CG2O2   CG3C31   CG3C31     9   180.000000     0.000000     3
   OG311    CG2O2   CG3C31   CG3C31     9     0.000000     0.000000     6
   OG311    CG2O2   CG3C31     HGA1     9   180.000000     0.000000     3
   OG311    CG2O2   CG3C41   CG3C41     9   180.000000     1.171520     3
   OG311    CG2O2   CG3C41   CG3RC1     9     0.000000     0.251040     3
   OG311    CG2O2   CG3C41     HGA1     9   180.000000     0.000000     3
   OG311    CG2O2   CG3C50   CG3C50     9   180.000000     1.213360     6
   OG311    CG2O2   CG3C50   CG3C52     9     0.000000     6.234160     6
   OG311    CG2O2   CG3C50    NG321     9   180.000000     1.129680     6
   OG311    CG2O2   CG3C51   CG2R51     9   180.000000     5.983120     2
   OG311    CG2O2   CG3C51   CG2R51     9   180.000000     2.970640     3
   OG311    CG2O2   CG3C51   CG2R53     9     0.000000     0.920480     2
   OG311    CG2O2   CG3C51   CG2R53     9     0.000000     0.794960     3
   OG311    CG2O2   CG3C51   CG2RC0     9     0.000000     0.000000     2
   OG311    CG2O2   CG3C51   CG2RC0     9   180.000000     0.962320     3
   OG311    CG2O2   CG3C51   CG2RC0     9   180.000000     0.376560     4
   OG311    CG2O2   CG3C51   CG3C50     9   180.000000     1.087840     2
   OG311    CG2O2   CG3C51   CG3C50     9     0.000000     5.732080     4
   OG311    CG2O2   CG3C51   CG3C50     9     0.000000     2.761440     6
   OG311    CG2O2   CG3C51   CG3C52     9   180.000000     0.502080     2
   OG311    CG2O2   CG3C51   CG3C52     9   180.000000     2.552240     3
   OG311    CG2O2   CG3C51   CG3C52     9   180.000000     1.422560     6
   OG311    CG2O2   CG3C51   CG3RC1     9   180.000000     1.380720     3
   OG311    CG2O2   CG3C51   CG3RC1     9   180.000000     0.460240     6
   OG311    CG2O2   CG3C51    NG2S0     9   180.000000     8.033280     1
   OG311    CG2O2   CG3C51    NG2S0     9     0.000000     6.234160     6
   OG311    CG2O2   CG3C51   NG3C51     9     0.000000     2.384880     4
   OG311    CG2O2   CG3C51   NG3C51     9     0.000000     5.439200     6
   OG311    CG2O2   CG3C51     HGA1     9   180.000000     0.000000     6
   OG311    CG2O2   CG3RC1   CG3C52     9   180.000000     0.753120     6
   OG311    CG2O2   CG3RC1    NG2S1     9   180.000000     1.380720     1
   OG311    CG2O2   CG3RC1    NG2S1     9     0.000000     0.878640     2
   OG311    CG2O6    NG2S0    CG311     9   180.000000    16.736000     2
   OG311    CG2O6    NG2S0    CG311     9     0.000000     3.974800     4
   OG311    CG2O6    NG2S0    CG321     9   180.000000    16.736000     2
   OG311    CG2O6    NG2S0    CG321     9     0.000000     3.974800     4
   OG311   CG2R51   CG2R51    OG311     9   180.000000    13.095920     2
   OG311   CG2R51   CG2R51   SG2R50     9   180.000000    36.902880     2
   OG311   CG2R51   CG2R51    HGR52     9     0.000000     2.259360     2
   OG311   CG2R51   CG2R53    OG2D1     9   180.000000     7.154640     2
   OG311   CG2R51   CG2R53   OG3C51     9   180.000000    17.949360     2
   OG311   CG2R51   CG2RC0   CG2R63     9     0.000000     0.000000     2
   OG311   CG2R51   CG2RC0   CG2RC0     9   180.000000    19.371920     2
   OG311   CG2R51   CG3C51    CG331     9     0.000000     3.640080     3
   OG311   CG2R51   CG3C51   OG3C51     9     0.000000     0.000000     2
   OG311   CG2R51   CG3C51     HGA1     9   180.000000     0.000000     3
   OG311   CG2R51   CG3C52   OG3C51     9   180.000000    14.476640     2
   OG311   CG2R51   CG3C52   OG3C51     9     0.000000     1.297040     3
   OG311   CG2R51   CG3C52     HGA2     9   180.000000     0.000000     3
   OG311   CG2R51   NG2R50   CG2R53     9   180.000000    18.242240     2
   OG311   CG2R51   NG2R51   CG2R53     9   180.000000    25.623653     2
   OG311   CG2R51   NG2R51   CG2RC0     9   180.000000    14.691279     2
   OG311   CG2R51   NG2R51    CG321     9   180.000000     0.421747     2
   OG311   CG2R51   NG2R51    CG331     9   180.000000     0.421747     2
   OG311   CG2R51   NG2R51     HGP1     9   180.000000     0.001255     2
   OG311   CG2R61   CG2R61    OG311     9   180.000000    14.145267     2
   OG311   CG2R61   CG2R61    SG311     9   180.000000    15.941040     2
   OG311   CG2R61   CG2R61    SG3O1     9   180.000000    15.146080     2
   OG311   CG2R61   CG2R61    CLGR1     9   180.000000    14.936043     2
   OG311   CG2R61   CG2R61    BRGR1     9   180.000000    13.041946     2
   OG311   CG2R61   CG2R61     IGR1     9   180.000000    11.704740     2
   OG311   CG2R61   CG2R61    HGR61     9   180.000000    10.041600     2
   OG311   CG2R61   CG2R61    HGR62     9   180.000000    10.041600     2
   OG311   CG2R61   CG2R64    NG2D1     9   180.000000    20.250560     2
   OG311   CG2R61   CG2R64   NG2R60     9   180.000000    12.970400     2
   OG311   CG2R61   CG2R64   NG2R62     9   180.000000    12.970400     2
   OG311   CG2R61   CG2R64    NG2S1     9   180.000000    10.041600     2
   OG311   CG2R61   CG2R64    NG301     9   180.000000    17.614640     2
   OG311   CG2R61   CG2R66   CG2R61     9   180.000000    12.970400     2
   OG311   CG2R61   CG2R66     FGR1     9   180.000000    17.110886     2
   OG311   CG2R61   CG2R67   CG2R61     9   180.000000    11.715200     2
   OG311   CG2R61   CG2R67   CG2R67     9   180.000000    13.095920     2
   OG311   CG2R61   CG2R67   NG2R60     9   180.000000    15.355280     2
   OG311   CG2R61   CG2R67   NG2R67     9   180.000000    14.183760     2
   OG311   CG2R61   CG2RC0   CG2R51     9   180.000000     6.012826     2
   OG311   CG2R61   CG2RC0   CG2RC0     9   180.000000    12.970400     2
   OG311   CG2R61   CG2RC0   CG3C51     9   180.000000     7.363840     2
   OG311   CG2R61   CG2RC0   CG3C52     9   180.000000    11.631520     2
   OG311   CG2R61   CG2RC0   NG2R50     9   180.000000     4.184000     2
   OG311   CG2R61   CG2RC0   NG2R51     9   180.000000     7.988930     2
   OG311   CG2R61   CG2RC0   NG2R52     9   180.000000    10.041600     2
   OG311   CG2R61   NG2R62   CG2R64     9   180.000000    12.970400     2
   OG311   CG2R62   CG2R62    HGR62     9   180.000000    11.296800     2
   OG311   CG2R62   CG2R63   NG2R61     9   180.000000    11.296800     2
   OG311   CG2R62   CG2R63    OG2D4     9   180.000000     0.000000     2
   OG311   CG2R62   NG2R61   CG2R64     9   180.000000    11.003920     2
   OG311   CG2R62   NG2R61     HGP1     9     0.000000     0.000000     2
   OG311   CG2R62   NG2R62   CG2R63     9   180.000000    12.552000     2
   OG311   CG2R62   NG2R62   CG2R64     9   180.000000    12.552000     2
   OG311   CG2R62   NG2R67   CG2R63     9   180.000000     4.309520     2
   OG311   CG2R62   NG2R67   CG2R67     9     0.000000     0.000000     2
   OG311    CG301    CG301    OG311     9   180.000000     3.389040     1
   OG311    CG301    CG301    OG311     9     0.000000     2.008320     3
   OG311    CG301    CG302     FGA3     9     0.000000     3.514560     3
   OG311    CG301    CG311    CG2O5     9   180.000000     2.384880     3
   OG311    CG301    CG311    CG311     9     0.000000     3.347200     3
   OG311    CG301    CG311    CG314     9   180.000000     3.138000     1
   OG311    CG301    CG311    CG314     9   180.000000     5.690240     2
   OG311    CG301    CG311    CG314     9   180.000000     0.836800     3
   OG311    CG301    CG311    CG314     9     0.000000    21.631280     5
   OG311    CG301    CG311    CG321     9     0.000000     3.347200     3
   OG311    CG301    CG311    CG324     9   180.000000     0.209200     1
   OG311    CG301    CG311    CG324     9   180.000000     5.941280     2
   OG311    CG301    CG311    CG324     9   180.000000     2.050160     3
   OG311    CG301    CG311    CG324     9     0.000000     2.217520     5
   OG311    CG301    CG311    CG331     9     0.000000     3.347200     3
   OG311    CG301    CG311   NG2R61     9     0.000000     2.468560     3
   OG311    CG301    CG311   NG2R61     9     0.000000     1.589920     6
   OG311    CG301    CG311    OG311     9   180.000000     3.379417     1
   OG311    CG301    CG311    OG311     9     0.000000     1.993676     3
   OG311    CG301    CG311   OG3C61     9   180.000000     0.418400     1
   OG311    CG301    CG311   OG3C61     9     0.000000     0.794960     3
   OG311    CG301    CG311     HGA1     9     0.000000     0.815880     3
   OG311    CG301    CG314    CG331     9     0.000000     3.347200     3
   OG311    CG301    CG314    NG3P1     9     0.000000     0.836800     3
   OG311    CG301    CG314     HGA1     9     0.000000     0.836800     3
   OG311    CG301    CG321    CG2O5     9     0.000000     0.711280     3
   OG311    CG301    CG321   CG2R61     9   180.000000     0.041840     1
   OG311    CG301    CG321   CG2R61     9     0.000000     3.723760     3
   OG311    CG301    CG321    CG311     9     0.000000     3.347200     3
   OG311    CG301    CG321    CG321     9     0.000000     3.347200     3
   OG311    CG301    CG321    CG324     9   180.000000     2.092000     1
   OG311    CG301    CG321    CG324     9     0.000000     2.928800     2
   OG311    CG301    CG321    CG324     9     0.000000     1.673600     3
   OG311    CG301    CG321    CG324     9     0.000000     1.673600     5
   OG311    CG301    CG321    CG331     9     0.000000     3.347200     3
   OG311    CG301    CG321    NG2S0     9     0.000000     0.627600     3
   OG311    CG301    CG321    NG301     9     0.000000     0.836800     3
   OG311    CG301    CG321    SG311     9   180.000000     3.347200     1
   OG311    CG301    CG321    SG311     9   180.000000     1.255200     3
   OG311    CG301    CG321     HGA2     9     0.000000     0.836800     3
   OG311    CG301    CG322    CG324     9     0.000000     0.585760     1
   OG311    CG301    CG322    CG324     9   180.000000     0.083680     2
   OG311    CG301    CG322    CG324     9   180.000000     0.962320     3
   OG311    CG301    CG322    CG324     9   180.000000     0.502080     5
   OG311    CG301    CG322     FGA1     9   180.000000     6.861760     3
   OG311    CG301    CG322     HGA6     9   180.000000     2.343040     3
   OG311    CG301    CG324    NG3P1     9     0.000000     0.836800     3
   OG311    CG301    CG324     HGA2     9     0.000000     0.836800     3
   OG311    CG301    CG331     HGA3     9     0.000000     0.585760     3
   OG311    CG301   CG3C41   CG3C41     9   180.000000     2.050160     3
   OG311    CG301   CG3C41     HGA1     9     0.000000     0.000000     3
   OG311    CG301   CG3RC1   CG3C54     9   180.000000     0.125520     3
   OG311    CG301   CG3RC1   CG3RC1     9     0.000000     1.882800     2
   OG311    CG301   CG3RC1     HGA1     9     0.000000     0.000000     3
   OG311    CG301    NG2S1    CG2O6     9     0.000000     1.380720     1
   OG311    CG301    NG2S1    CG2O6     9     0.000000     1.380720     6
   OG311    CG301    NG2S1     HGP1     9     0.000000     6.276000     1
   OG311    CG301    NG2S1     HGP1     9     0.000000     2.259360     4
   OG311    CG301    NG311   CG2R61     9     0.000000     0.418400     1
   OG311    CG301    NG311   CG2R61     9   180.000000    13.012240     2
   OG311    CG301    NG311   CG2R61     9   180.000000     8.116960     3
   OG311    CG301    NG311   HGPAM1     9   180.000000     5.104480     2
   OG311    CG301    NG311   HGPAM1     9   180.000000     4.476880     3
   OG311    CG301    OG301    CG331     9   180.000000     1.715440     1
   OG311    CG301    OG301    CG331     9     0.000000     3.723760     2
   OG311    CG301    OG301    CG331     9     0.000000     0.209200     3
   OG311    CG301    OG311     HGP1     9     0.000000     6.485200     1
   OG311    CG301    OG311     HGP1     9     0.000000     4.895280     2
   OG311    CG301    OG311     HGP1     9     0.000000     4.476880     3
   OG311    CG301   OG3C61    CG301     9   180.000000     1.129680     2
   OG311    CG301   OG3C61    CG301     9     0.000000     3.096160     3
   OG311    CG301   OG3C61    CG311     9   180.000000     0.376560     3
   OG311    CG301   OG3C61    CG321     9   180.000000     0.878640     3
   OG311    CG301    SG311    CG321     9     0.000000     1.673600     1
   OG311    CG301    SG311    CG321     9   180.000000     3.472720     2
   OG311    CG301    SG311    CG321     9     0.000000     0.627600     3
   OG311    CG301      CT1        C     9     0.000000     0.836800     3
   OG311    CG311    CG311    OG311     9     0.000000     0.836800     3
   OG311    CG311    CG311   OG3C61     9     0.000000     4.267680     2
   OG311    CG311    CG311   OG3C61     9   180.000000     0.334720     3
   OG311    CG311    CG311   OG3C61     9   180.000000     0.209200     4
   OG311    CG311    CG311     HGA1     9     0.000000     0.815880     3
   OG311    CG311    CG314    CG2O3     9     0.000000     0.836800     3
   OG311    CG311    CG314    CG311     9     0.000000     0.585760     3
   OG311    CG311    CG314    CG321     9     0.000000     0.585760     3
   OG311    CG311    CG314    NG3P3     9     0.000000     0.836800     3
   OG311    CG311    CG314   OG3C61     9     0.000000     0.251040     2
   OG311    CG311    CG314   OG3C61     9   180.000000     2.886960     3
   OG311    CG311    CG314     HGA1     9     0.000000     0.815880     3
   OG311    CG311    CG321    CG2D1     9     0.000000     0.836800     3
   OG311    CG311    CG321    CG2O1     9     0.000000     0.836800     3
   OG311    CG311    CG321    CG2O5     9     0.000000     0.836800     3
   OG311    CG311    CG321   CG2R51     9   180.000000     7.531200     1
   OG311    CG311    CG321   CG2R51     9     0.000000     1.464400     3
   OG311    CG311    CG321    CG301     9   180.000000     8.368000     3
   OG311    CG311    CG321    CG301     9     0.000000     1.673600     5
   OG311    CG311    CG321    CG301     9     0.000000     3.347200     6
   OG311    CG311    CG321    CG311     9   180.000000     8.368000     3
   OG311    CG311    CG321    CG311     9     0.000000     1.673600     5
   OG311    CG311    CG321    CG311     9     0.000000     3.347200     6
   OG311    CG311    CG321    CG314     9   180.000000     2.092000     1
   OG311    CG311    CG321    CG314     9     0.000000     2.928800     2
   OG311    CG311    CG321    CG314     9     0.000000     1.673600     3
   OG311    CG311    CG321    CG314     9     0.000000     1.673600     5
   OG311    CG311    CG321    CG321     9   180.000000     2.092000     1
   OG311    CG311    CG321    CG321     9     0.000000     2.928800     2
   OG311    CG311    CG321    CG321     9     0.000000     1.673600     3
   OG311    CG311    CG321    CG321     9     0.000000     1.673600     5
   OG311    CG311    CG321    CG324     9   180.000000     2.092000     1
   OG311    CG311    CG321    CG324     9     0.000000     2.928800     2
   OG311    CG311    CG321    CG324     9     0.000000     1.673600     3
   OG311    CG311    CG321    CG324     9     0.000000     1.673600     5
   OG311    CG311    CG321    CG331     9     0.000000     0.585760     3
   OG311    CG311    CG321   CG3C50     9     0.000000     2.510400     1
   OG311    CG311    CG321   CG3C50     9     0.000000     2.928800     3
   OG311    CG311    CG321   CG3C51     9     0.000000     2.510400     1
   OG311    CG311    CG321   CG3C51     9     0.000000     2.928800     3
   OG311    CG311    CG321   CG3RC1     9     0.000000     2.510400     1
   OG311    CG311    CG321   CG3RC1     9     0.000000     2.928800     3
   OG311    CG311    CG321   NG2R61     9     0.000000     0.836800     3
   OG311    CG311    CG321    NG2S1     9     0.000000     0.836800     3
   OG311    CG311    CG321    NG301     9     0.000000     0.836800     3
   OG311    CG311    CG321   NG3C51     9   180.000000     1.302898     3
   OG311    CG311    CG321    OG303     9     0.000000     0.836800     3
   OG311    CG311    CG321    OG311     9     0.000000     0.836800     3
   OG311    CG311    CG321   OG3C61     9     0.000000     0.836800     3
   OG311    CG311    CG321    CLGA1     9   180.000000     1.476952     2
   OG311    CG311    CG321    CLGA1     9     0.000000     1.074451     3
   OG311    CG311    CG321     HGA2     9   180.000000     0.815880     3
   OG311    CG311    CG322    CG321     9   180.000000     0.711280     1
   OG311    CG311    CG322    CG321     9   180.000000     0.125520     2
   OG311    CG311    CG322    CG321     9   180.000000     1.004160     3
   OG311    CG311    CG322    CG321     9   180.000000     2.175680     5
   OG311    CG311    CG322     FGA1     9   180.000000    22.049680     3
   OG311    CG311    CG322     HGA6     9   180.000000     9.665040     3
   OG311    CG311    CG324    NG2P1     9   180.000000    12.089250     1
   OG311    CG311    CG324    NG2P1     9     0.000000     4.896535     4
   OG311    CG311    CG324    NG3P1     9     0.000000     0.815880     3
   OG311    CG311    CG324    NG3P2     9     0.000000     0.815880     3
   OG311    CG311    CG324    NG3P3     9     0.000000     0.815880     3
   OG311    CG311    CG324     HGA2     9     0.000000     0.815880     3
   OG311    CG311    CG331     HGA3     9     0.000000     0.836800     3
   OG311    CG311   CG3C50    CG324     9     0.000000     0.502080     3
   OG311    CG311   CG3C50   CG3C52     9     0.000000    14.853200     2
   OG311    CG311   CG3C50   CG3C52     9     0.000000     0.000000     3
   OG311    CG311   CG3C50   OG3C51     9   180.000000     5.690240     1
   OG311    CG311   CG3C50   OG3C51     9   180.000000     8.493520     2
   OG311    CG311   CG3C51   CG3RC1     9   180.000000     2.552240     3
   OG311    CG311   CG3C51   OG3C51     9   180.000000     5.397360     1
   OG311    CG311   CG3C51   OG3C51     9     0.000000     6.192320     3
   OG311    CG311   CG3C51     HGA1     9     0.000000     0.000000     3
   OG311    CG311   CG3RC1    CG331     9     0.000000     0.661072     3
   OG311    CG311   CG3RC1   CG3C31     9     0.000000     0.000000     1
   OG311    CG311   CG3RC1   CG3C31     9     0.000000    28.200160     2
   OG311    CG311   CG3RC1   CG3C51     9     0.000000     0.661072     3
   OG311    CG311   CG3RC1   CG3C52     9     0.000000     0.669440     3
   OG311    CG311   CG3RC1   CG3RC1     9     0.000000     1.882800     2
   OG311    CG311   CG3RC1    NG2S0     9     0.000000     0.167360     3
   OG311    CG311   CG3RC1   OG3C31     9   180.000000     1.422560     1
   OG311    CG311   CG3RC1   OG3C31     9   180.000000     0.669440     6
   OG311    CG311   CG3RC1     HGA1     9     0.000000     0.000000     3
   OG311    CG311   NG2R51   CG2R51     9   180.000000     2.803280     1
   OG311    CG311   NG2R51   CG2R51     9     0.000000     2.217520     2
   OG311    CG311   NG2R51   CG2R51     9     0.000000     0.460240     3
   OG311    CG311   NG2R51   CG2R51     9     0.000000     1.297040     4
   OG311    CG311   NG2R51   NG2R50     9   180.000000     1.422560     1
   OG311    CG311   NG2R51   NG2R50     9   180.000000     1.087840     2
   OG311    CG311   NG2R51   NG2R50     9   180.000000     6.401520     3
   OG311    CG311   NG2R51   NG2R50     9   180.000000     1.087840     4
   OG311    CG311    NG2S0    CG2O6     9   180.000000     1.799120     1
   OG311    CG311    NG2S0    CG2O6     9   180.000000     2.384880     2
   OG311    CG311    NG2S0    CG331     9     0.000000     6.861760     1
   OG311    CG311    NG2S0    CG331     9     0.000000     0.209200     2
   OG311    CG311    NG2S0    CG331     9     0.000000     4.644240     3
   OG311    CG311    NG311   CG2R61     9   180.000000     1.589920     1
   OG311    CG311    NG311   CG2R61     9     0.000000     8.660880     2
   OG311    CG311    NG311   CG2R61     9   180.000000     1.129680     3
   OG311    CG311    NG311   HGPAM1     9   180.000000     4.895280     2
   OG311    CG311    NG311   HGPAM1     9   180.000000     0.125520     3
   OG311    CG311    OG303    SG3O1     9   180.000000     2.714579     1
   OG311    CG311    OG303    SG3O1     9     0.000000     5.367235     2
   OG311    CG311    OG303    SG3O1     9     0.000000     1.473605     3
   OG311    CG311    OG311     HGP1     9     0.000000     7.673038     1
   OG311    CG311    OG311     HGP1     9     0.000000     4.413702     2
   OG311    CG311    OG311     HGP1     9     0.000000     1.163570     3
   OG311    CG311   OG3C61    CG311     9     0.000000     0.836800     3
   OG311    CG311    SG311    CG321     9   180.000000     1.966898     1
   OG311    CG311    SG311    CG321     9   180.000000     1.479881     2
   OG311    CG311    SG311    CG321     9   180.000000     7.115310     3
   OG311    CG311    SG311    CG331     9   180.000000     2.623786     1
   OG311    CG311    SG311    CG331     9     0.000000     5.818270     3
   OG311    CG311      CT1        C     9     0.000000     0.836800     3
   OG311    CG314    NG3P1    CG324     9   180.000000     1.255200     3
   OG311    CG314    NG3P1     HGP2     9   180.000000     1.840960     3
   OG311    CG321    CG321    SG301     9   180.000000    11.002665     1
   OG311    CG321    CG321    SG301     9   180.000000     1.389088     2
   OG311    CG321    CG321    SG301     9     0.000000     0.969851     3
   OG311    CG321    CG321    SG311     9   180.000000     7.282670     1
   OG311    CG321    CG321    SG311     9     0.000000     0.500406     3
   OG311    CG321    CG321     HGA2     9     0.000000     0.815880     3
   OG311    CG321    CG324    NG3P0     9   180.000000    17.991200     1
   OG311    CG321    CG324    NG3P0     9   180.000000    -1.673600     3
   OG311    CG321    CG324    NG3P3     9   180.000000     2.928800     1
   OG311    CG321    CG324     HGA2     9     0.000000     0.815880     3
   OG311    CG321    CG324     HGP5     9     0.000000     0.815880     3
   OG311    CG321    CG331     HGA3     9     0.000000     0.669440     3
   OG311    CG321   CG3C50   CG3C51     9   180.000000    10.460000     1
   OG311    CG321   CG3C50   CG3C51     9     0.000000     1.673600     2
   OG311    CG321   CG3C50   CG3C51     9   180.000000     3.347200     3
   OG311    CG321   CG3C50   CG3C51     9   180.000000     0.836800     4
   OG311    CG321   CG3C50   CG3C52     9     0.000000     6.024960     3
   OG311    CG321   CG3C50    NG321     9   180.000000     9.330320     1
   OG311    CG321   CG3C50    NG321     9   180.000000     0.460240     3
   OG311    CG321   CG3C50    NG3P3     9   180.000000     9.414000     1
   OG311    CG321   CG3C50    NG3P3     9   180.000000     5.230000     3
   OG311    CG321   CG3C50    OG311     9   180.000000    12.510160     1
   OG311    CG321   CG3C50    OG311     9   180.000000     9.121120     3
   OG311    CG321   CG3C51   CG2R51     9   180.000000    10.878400     1
   OG311    CG321   CG3C51   CG2R51     9   180.000000     4.100320     2
   OG311    CG321   CG3C51   CG2R51     9     0.000000     8.200640     3
   OG311    CG321   CG3C51   CG2R51     9   180.000000     0.669440     4
   OG311    CG321   CG3C51   CG3C50     9   180.000000    10.460000     1
   OG311    CG321   CG3C51   CG3C50     9     0.000000     1.673600     2
   OG311    CG321   CG3C51   CG3C50     9   180.000000     3.347200     3
   OG311    CG321   CG3C51   CG3C50     9   180.000000     0.836800     4
   OG311    CG321   CG3C51   CG3C51     9   180.000000    10.460000     1
   OG311    CG321   CG3C51   CG3C51     9     0.000000     1.673600     2
   OG311    CG321   CG3C51   CG3C51     9   180.000000     3.347200     3
   OG311    CG321   CG3C51   CG3C51     9   180.000000     0.836800     4
   OG311    CG321   CG3C51   CG3C52     9   180.000000     0.836800     3
   OG311    CG321   CG3C51   OG3C51     9   180.000000    14.225600     1
   OG311    CG321   CG3C51     HGA1     9     0.000000     0.815880     3
   OG311    CG321   NG2R61   CG2R63     9   180.000000     2.970640     2
   OG311    CG321   NG2R61   CG2R63     9   180.000000     0.000000     3
   OG311    CG321   NG2R61   CG2R64     9     0.000000    11.547840     2
   OG311    CG321   NG2R61   CG2R64     9     0.000000     0.000000     3
   OG311    CG321   NG3C51   CG2R53     9   180.000000     4.142160     1
   OG311    CG321   NG3C51   CG2R53     9     0.000000     2.803280     2
   OG311    CG321   NG3C51   CG2R53     9   180.000000     0.711280     3
   OG311    CG321   NG3C51   CG3C52     9   180.000000     0.376560     1
   OG311    CG321   NG3C51   CG3C52     9     0.000000     3.096160     2
   OG311    CG321   NG3C51   CG3C52     9   180.000000     0.418400     3
   OG311    CG321    SG311    CG321     9     0.000000     0.219242     1
   OG311    CG321    SG311    CG321     9     0.000000     5.529156     2
   OG311    CG321    SG311    CG321     9     0.000000     2.585712     3
   OG311   CG3C41   CG3C41     HGA2     9     0.000000     0.000000     3
   OG311   CG3C50   CG3C50    OG311     9     0.000000    22.426240     3
   OG311   CG3C50   CG3C50   OG3C51     9     0.000000    13.430640     3
   OG311   CG3C50   CG3C50   OG3C51     9   180.000000     7.824080     4
   OG311   CG3C50   CG3C50   OG3C51     9     0.000000     0.125520     5
   OG311   CG3C50   CG3C50   OG3C51     9     0.000000     3.430880     6
   OG311   CG3C50   CG3C51    CG331     9     0.000000     0.585760     3
   OG311   CG3C50   CG3C51   CG3C51     9   180.000000     2.092000     1
   OG311   CG3C50   CG3C51   CG3C51     9     0.000000     2.928800     2
   OG311   CG3C50   CG3C51   CG3C51     9     0.000000     1.673600     3
   OG311   CG3C50   CG3C51   CG3C51     9     0.000000     1.673600     5
   OG311   CG3C50   CG3C51   CG3C52     9   180.000000     2.092000     1
   OG311   CG3C50   CG3C51   CG3C52     9     0.000000     2.928800     2
   OG311   CG3C50   CG3C51   CG3C52     9     0.000000     1.673600     3
   OG311   CG3C50   CG3C51   CG3C52     9     0.000000     1.673600     5
   OG311   CG3C50   CG3C51    OG311     9     0.000000     0.000000     3
   OG311   CG3C50   CG3C51     HGA1     9   180.000000     0.836800     3
   OG311   CG3C50   CG3C52   CG2RC0     9     0.000000     5.606560     3
   OG311   CG3C50   CG3C52   CG2RC0     9   180.000000     0.125520     6
   OG311   CG3C50   CG3C52   CG3C52     9   180.000000     2.092000     1
   OG311   CG3C50   CG3C52   CG3C52     9     0.000000     2.928800     2
   OG311   CG3C50   CG3C52   CG3C52     9     0.000000     1.673600     3
   OG311   CG3C50   CG3C52   CG3C52     9     0.000000     1.673600     5
   OG311   CG3C50   CG3C52   CG3RC1     9   180.000000     2.092000     1
   OG311   CG3C50   CG3C52   CG3RC1     9     0.000000     2.928800     2
   OG311   CG3C50   CG3C52   CG3RC1     9     0.000000     1.673600     3
   OG311   CG3C50   CG3C52   CG3RC1     9     0.000000     1.673600     5
   OG311   CG3C50   CG3C52   NG2R50     9   180.000000     4.978960     2
   OG311   CG3C50   CG3C52   NG2R50     9   180.000000     1.799120     3
   OG311   CG3C50   CG3C52   OG3C51     9     0.000000     0.836800     3
   OG311   CG3C50   CG3C52   OG3C51     9   180.000000     2.510400     4
   OG311   CG3C50   CG3C52   OG3C51     9     0.000000     1.255200     5
   OG311   CG3C50   CG3C52   OG3C51     9     0.000000     2.092000     6
   OG311   CG3C50   CG3C52     HGA2     9   180.000000     0.815880     3
   OG311   CG3C50   CG3RC1   CG3C52     9     0.000000     1.882800     2
   OG311   CG3C50   CG3RC1     HGA1     9     0.000000     0.627600     3
   OG311   CG3C50    NG2S0    CG2O1     9     0.000000     0.234722     3
   OG311   CG3C50    NG2S0   CG3C52     9     0.000000    12.454931     3
   OG311   CG3C50    NG2S0        C     9     0.000000     0.234722     3
   OG311   CG3C50    NG321   HGPAM2     9     0.000000     1.631760     1
   OG311   CG3C50    NG321   HGPAM2     9   180.000000     1.087840     3
   OG311   CG3C50   NG3C51   CG2R53     9     0.000000     6.359680     2
   OG311   CG3C50   NG3C51   CG2R53     9     0.000000     2.635920     3
   OG311   CG3C50   NG3C51   CG3C52     9     0.000000     1.757280     3
   OG311   CG3C50   NG3C51   CG3C52     9   180.000000     5.062640     4
   OG311   CG3C50    NG3P3     HGP2     9     0.000000     1.673600     3
   OG311   CG3C50   OG3C51   CG2R53     9     0.000000     1.046000     3
   OG311   CG3C50    CG2O1        N     9     0.000000     0.778224     1
   OG311   CG3C51   CG3C51    OG311     9     0.000000     0.000000     3
   OG311   CG3C51   CG3C51   OG3C51     9     0.000000     0.836800     3
   OG311   CG3C51   CG3C51   OG3C51     9   180.000000     2.510400     4
   OG311   CG3C51   CG3C51   OG3C51     9     0.000000     1.255200     5
   OG311   CG3C51   CG3C51   OG3C51     9     0.000000     2.092000     6
   OG311   CG3C51   CG3C51    SG311     9   180.000000     3.083190     3
   OG311   CG3C51   CG3C51     FGA1     9     0.000000     0.836800     3
   OG311   CG3C51   CG3C51     HGA1     9     0.000000     0.815880     3
   OG311   CG3C51   CG3C51     HGA6     9     0.000000     0.836800     3
   OG311   CG3C51   CG3C52   CG3C50     9   180.000000     8.368000     3
   OG311   CG3C51   CG3C52   CG3C50     9     0.000000     1.673600     5
   OG311   CG3C51   CG3C52   CG3C50     9     0.000000     3.347200     6
   OG311   CG3C51   CG3C52   CG3C51     9   180.000000     8.368000     3
   OG311   CG3C51   CG3C52   CG3C51     9     0.000000     1.673600     5
   OG311   CG3C51   CG3C52   CG3C51     9     0.000000     3.347200     6
   OG311   CG3C51   CG3C52   CG3C52     9   180.000000     2.092000     1
   OG311   CG3C51   CG3C52   CG3C52     9     0.000000     2.928800     2
   OG311   CG3C51   CG3C52   CG3C52     9     0.000000     1.673600     3
   OG311   CG3C51   CG3C52   CG3C52     9     0.000000     1.673600     5
   OG311   CG3C51   CG3C52   CG3C53     9     0.000000     0.585760     3
   OG311   CG3C51   CG3C52   CG3RC1     9     0.000000     7.949600     2
   OG311   CG3C51   CG3C52    NG2S0     9     0.000000     0.000000     3
   OG311   CG3C51   CG3C52   OG3C51     9     0.000000     0.836800     3
   OG311   CG3C51   CG3C52   OG3C51     9   180.000000     2.510400     4
   OG311   CG3C51   CG3C52   OG3C51     9     0.000000     1.255200     5
   OG311   CG3C51   CG3C52   OG3C51     9     0.000000     2.092000     6
   OG311   CG3C51   CG3C52     HGA2     9   180.000000     0.815880     3
   OG311   CG3C51   CG3C53   CG2R51     9     0.000000     0.585760     3
   OG311   CG3C51   CG3C53   CG3C52     9     0.000000     0.836800     3
   OG311   CG3C51   CG3C53   CG3RC1     9     0.000000     2.510400     1
   OG311   CG3C51   CG3C53   CG3RC1     9     0.000000     2.928800     3
   OG311   CG3C51   CG3C53   NG2R52     9     0.000000     0.627600     3
   OG311   CG3C51   CG3C53   NG2R52     9     0.000000     0.711280     6
   OG311   CG3C51   CG3C53   NG2R61     9     0.000000     0.000000     3
   OG311   CG3C51   CG3C53    NG3P2     9     0.000000     0.000000     3
   OG311   CG3C51   CG3C53   OG3C51     9     0.000000     0.836800     3
   OG311   CG3C51   CG3C53   OG3C51     9   180.000000     2.510400     4
   OG311   CG3C51   CG3C53   OG3C51     9     0.000000     1.255200     5
   OG311   CG3C51   CG3C53   OG3C51     9     0.000000     2.092000     6
   OG311   CG3C51   CG3C53     HGA1     9     0.000000     0.815880     3
   OG311   CG3C51   CG3C54    NG3P2     9     0.000000     0.000000     3
   OG311   CG3C51   CG3C54     HGA2     9   180.000000     0.836800     3
   OG311   CG3C51   CG3RC1   CG2R57     9     0.000000     4.811600     3
   OG311   CG3C51   CG3RC1   CG2RC0     9     0.000000     0.794960     2
   OG311   CG3C51   CG3RC1   CG2RC0     9   180.000000     0.041840     3
   OG311   CG3C51   CG3RC1    CG311     9     0.000000     1.882800     2
   OG311   CG3C51   CG3RC1    CG311     9   180.000000     3.347200     3
   OG311   CG3C51   CG3RC1    CG311     9     0.000000     0.836800     4
   OG311   CG3C51   CG3RC1    CG321     9     0.000000     1.882800     2
   OG311   CG3C51   CG3RC1    CG321     9   180.000000     3.347200     3
   OG311   CG3C51   CG3RC1    CG321     9     0.000000     0.836800     4
   OG311   CG3C51   CG3RC1    CG331     9     0.000000     1.882800     2
   OG311   CG3C51   CG3RC1    CG331     9   180.000000     3.347200     3
   OG311   CG3C51   CG3RC1    CG331     9     0.000000     0.836800     4
   OG311   CG3C51   CG3RC1   CG3C31     9     0.000000     1.882800     2
   OG311   CG3C51   CG3RC1   CG3C31     9   180.000000     3.347200     3
   OG311   CG3C51   CG3RC1   CG3C31     9     0.000000     0.836800     4
   OG311   CG3C51   CG3RC1   CG3C51     9     0.000000     1.882800     2
   OG311   CG3C51   CG3RC1   CG3C52     9     0.000000     1.882800     2
   OG311   CG3C51   CG3RC1   CG3RC1     9     0.000000     1.882800     2
   OG311   CG3C51   CG3RC1    NG2S0     9     0.000000     4.267680     3
   OG311   CG3C51   CG3RC1    NG2S0     9   180.000000     5.690240     6
   OG311   CG3C51   CG3RC1   OG3C31     9     0.000000     0.000000     4
   OG311   CG3C51   CG3RC1   OG3C51     9   180.000000     0.418400     3
   OG311   CG3C51   CG3RC1   OG3C51     9   180.000000     2.301200     4
   OG311   CG3C51   CG3RC1   OG3C51     9     0.000000     0.334720     5
   OG311   CG3C51   CG3RC1   OG3C51     9     0.000000     1.882800     6
   OG311   CG3C51   CG3RC1     HGA1     9     0.000000     0.627600     3
   OG311   CG3C51   OG3C51   CG3C51     9   180.000000     0.878640     2
   OG311   CG3C51   OG3C51   CG3C51     9     0.000000     4.142160     3
   OG311   CG3C51   OG3C51   CG3C51     9     0.000000     0.418400     4
   OG311   CG3C51   OG3C51   CG3C51     9   180.000000     0.292880     6
   OG311   CG3C51   OG3C51   CG3C52     9     0.000000    13.388800     2
   OG311   CG3C51   OG3C51   CG3C52     9     0.000000     7.949600     3
   OG311   CG3C51   OG3C51   CG3C52     9   180.000000     4.184000     4
   OG311   CG3C51    SG311   CG3C52     9   180.000000     2.468560     1
   OG311   CG3C51    SG311   CG3C52     9     0.000000     3.598240     2
   OG311   CG3C51    SG311   CG3C52     9     0.000000     0.418400     3
   OG311   CG3RC1   CG3RC1     HGA1     9     0.000000     0.000000     3
   OG311   CG3RC1   OG3C51   CG2R53     9   180.000000     6.066800     2
   OG311   CG3RC1   OG3C51   CG2R53     9   180.000000     3.263520     3
   OG311    OG301    SG301    CG321     9     0.000000     0.199577     1
   OG311    OG301    SG301    CG321     9     0.000000    15.581216     2
   OG311    OG301    SG301    CG321     9     0.000000     3.801582     3
   OG311    OG301    SG301    CG321     9   180.000000     0.791194     6
   OG311      PG2    SG2P1    CG321     9     0.000000     4.073124     2
    HGA5    CG2D2    CG2D2     HGA5     9   180.000000    20.501600     2
    HGA5    CG2D2   CG2D2O   NG2R61     9   180.000000    23.472240     2
    HGA5    CG2D2   CG2D2O    NG321     9   180.000000     8.368000     2
    HGA5    CG2D2   CG2D2O   NG3C51     9   180.000000    24.183520     2
    HGA5    CG2D2   CG2D2O    OG301     9   180.000000    37.656000     2
    HGA5    CG2D2   CG2D2O     HGA4     9   180.000000     8.368000     2
   CG2O2   CG2DC1   CG2DC1    CG301     9   180.000000     2.343040     1
   CG2O2   CG2DC1   CG2DC1    CG301     9   180.000000    29.288000     2
   CG2O2   CG2DC1   CG2DC1    CG311     9   180.000000     2.343040     1
   CG2O2   CG2DC1   CG2DC1    CG311     9   180.000000    29.288000     2
   CG2O2   CG2DC1   CG2DC1    CG321     9   180.000000     2.343040     1
   CG2O2   CG2DC1   CG2DC1    CG321     9   180.000000    29.288000     2
   CG2O2   CG2DC1   CG2DC1     HGA4     9   180.000000     4.518720     2
   CG2O2   CG2DC2   CG2DC2    CG301     9   180.000000     2.343040     1
   CG2O2   CG2DC2   CG2DC2    CG301     9   180.000000    29.288000     2
   CG2O2   CG2DC2   CG2DC2    CG311     9   180.000000     2.343040     1
   CG2O2   CG2DC2   CG2DC2    CG311     9   180.000000    29.288000     2
   CG2O2   CG2DC2   CG2DC2    CG321     9   180.000000     2.343040     1
   CG2O2   CG2DC2   CG2DC2    CG321     9   180.000000    29.288000     2
   CG2O2   CG2DC2   CG2DC2     HGA4     9   180.000000     4.518720     2
   CG2O2   CG2R51   CG2R51   CG2R51     9   180.000000     0.000000     2
   CG2O2   CG2R51   CG2R51    CG331     9   180.000000     0.000000     2
   CG2O2   CG2R51   SG2R50   CG2R51     9   180.000000    34.015920     2
   CG2O2   CG2R52   CG2RC0   CG2R61     9     0.000000     0.000000     2
   CG2O2   CG2R52   CG2RC0   CG2RC0     9   180.000000     6.652560     2
   CG2O2   CG2R52   NG2R50   NG2R51     9   180.000000    22.719120     2
   CG2O2   CG2R52   NG2R50   OG2R50     9   180.000000    23.137520     2
   CG2O2   CG2R53   NG2R50   CG2RC0     9   180.000000    15.773680     2
   CG2O2   CG2R53   SG2R50   CG2RC0     9   180.000000    11.631520     2
   CG2O2   CG2R61   CG2R61   CG2R61     9   180.000000    12.970400     2
   CG2O2   CG2R61   CG2R61   CG2R64     9   180.000000    12.970400     2
   CG2O2   CG2R61   CG2R61   NG2R60     9   180.000000     4.184000     2
   CG2O2   CG2R61   CG2R61   NG2R61     9   180.000000    31.714720     2
   CG2O2   CG2R61   CG2R61    NG2S3     9   180.000000     5.397360     2
   CG2O2   CG2R61   CG2R61    OG301     9   180.000000     5.564720     2
   CG2O2   CG2R61   CG2R61    OG311     9   180.000000    17.782000     2
   CG2O2   CG2R61   CG2R61    SG311     9     0.000000     0.000000     2
   CG2O2   CG2R61   CG2R61    HGR61     9   180.000000    10.041600     2
   CG2O2   CG2R61   CG2R61    HGR62     9   180.000000    10.041600     2
   CG2O2   CG2R61   CG2R62   CG2R62     9   180.000000    12.970400     2
   CG2O2   CG2R61   CG2R62   NG2R61     9     0.000000     3.974800     2
   CG2O2   CG2R61   CG2R63   NG2R61     9     0.000000     0.000000     2
   CG2O2   CG2R61   CG2R63    SG2D1     9   180.000000     1.924640     2
   CG2O2   CG2R61   CG2RC0   CG2R52     9     0.000000     0.000000     2
   CG2O2   CG2R61   CG2RC0   CG2RC0     9   180.000000    12.970400     2
   CG2O2   CG2R61   CG2RC0   CG3C52     9   180.000000     5.104480     2
   CG2O2   CG2R61   NG2R60   CG2R61     9   180.000000    35.312960     2
   CG2O2   CG2R61   NG2R62   CG2R64     9   180.000000    18.953520     2
   CG2O2   CG2R62   CG2R62   CG2R62     9   180.000000    12.552000     2
   CG2O2   CG2R62   CG2R62   CG2R63     9   180.000000    12.552000     2
   CG2O2   CG2R62   CG2R62    CG321     9   180.000000     9.832400     2
   CG2O2   CG2R62   CG2R62   NG2R61     9   180.000000    10.460000     2
   CG2O2   CG2R62   CG2R62    NG2S3     9   180.000000    25.187680     2
   CG2O2   CG2R62   CG2R62    HGR62     9   180.000000    11.715200     2
   CG2O2   CG2R62   CG2R62    HGR63     9   180.000000    11.715200     2
   CG2O2   CG2R62   CG2R63   CG2R62     9   180.000000    14.016400     2
   CG2O2   CG2R62   CG2R63   NG2R61     9   180.000000     5.564720     2
   CG2O2   CG2R62   CG2R63    OG2D4     9   180.000000    11.464160     2
   CG2O2   CG2R62   NG2R61   CG2R62     9     0.000000     0.000000     2
   CG2O2   CG2R62   NG2R61     HGP1     9   180.000000     5.564720     2
   CG2O2   CG2R62   OG3R60   CG2R62     9     0.000000     0.000000     2
   CG2O2   CG2R64   NG2R61   CG2R63     9   180.000000    12.635680     2
   CG2O2   CG2R64   NG2R61     HGP1     9   180.000000    14.141920     2
   CG2O2   CG2R64   NG2R62   CG2R64     9   180.000000    15.355280     2
   CG2O2    CG301    CG311    CG321     9     0.000000     0.836800     3
   CG2O2    CG301    CG311    NG321     9     0.000000     0.041840     1
   CG2O2    CG301    CG311    NG321     9     0.000000     2.008320     2
   CG2O2    CG301    CG311    NG321     9     0.000000     0.502080     3
   CG2O2    CG301    CG311     HGA1     9     0.000000     0.836800     3
   CG2O2    CG301    CG321    CG2O5     9   180.000000     0.711280     3
   CG2O2    CG301    CG321    CG2O5     9     0.000000     0.962320     4
   CG2O2    CG301    CG321    CG301     9     0.000000     0.836800     3
   CG2O2    CG301    CG321    CG321     9     0.000000     0.836800     3
   CG2O2    CG301    CG321    SG3O2     9     0.000000     3.681920     3
   CG2O2    CG301    CG321     HGA2     9     0.000000     0.836800     3
   CG2O2    CG301    CG331     HGA3     9     0.000000     0.836800     3
   CG2O2    CG301    NG321   HGPAM2     9     0.000000     0.669440     3
   CG2O2    CG311    CG311    CG321     9     0.000000     0.836800     3
   CG2O2    CG311    CG311    CG331     9     0.000000     0.836800     3
   CG2O2    CG311    CG311    OG301     9   180.000000     8.368000     1
   CG2O2    CG311    CG311    OG301     9     0.000000     3.347200     2
   CG2O2    CG311    CG311    OG311     9     0.000000     0.836800     3
   CG2O2    CG311    CG311     HGA1     9     0.000000     0.836800     3
   CG2O2    CG311    CG321    CG2O2     9     0.000000     0.836800     3
   CG2O2    CG311    CG321   CG2R61     9     0.000000     0.167360     3
   CG2O2    CG311    CG321    CG311     9     0.000000     0.836800     3
   CG2O2    CG311    CG321    CG321     9     0.000000     0.836800     3
   CG2O2    CG311    CG321    CG331     9     0.000000     0.836800     3
   CG2O2    CG311    CG321   CG3RC1     9   180.000000     4.978960     2
   CG2O2    CG311    CG321   CG3RC1     9     0.000000     2.343040     3
   CG2O2    CG311    CG321     HGA2     9     0.000000     0.836800     3
   CG2O2    CG311    CG331     HGA3     9     0.000000     0.836800     3
   CG2O2    CG311   CG3RC1   CG2RC0     9     0.000000     0.167360     2
   CG2O2    CG311   CG3RC1   CG2RC0     9   180.000000     0.878640     3
   CG2O2    CG311   CG3RC1   CG2RC0     9   180.000000     2.259360     4
   CG2O2    CG311   CG3RC1   CG3C52     9   180.000000     0.167360     4
   CG2O2    CG311   CG3RC1     HGA1     9     0.000000     0.000000     3
   CG2O2    CG311   NG2R51   CG2R51     9     0.000000     2.761440     1
   CG2O2    CG311   NG2R51   CG2R51     9     0.000000    15.146080     2
   CG2O2    CG311   NG2R51   CG2R51     9     0.000000     5.481040     3
   CG2O2    CG311   NG2R51   NG2R50     9   180.000000     1.757280     1
   CG2O2    CG311   NG2R51   NG2R50     9   180.000000    15.020560     2
   CG2O2    CG311   NG2R51   NG2R50     9   180.000000     9.623200     3
   CG2O2    CG311   NG2R53   CG2R53     9   180.000000     0.000000     1
   CG2O2    CG311    NG2S1    CG2O1     9   180.000000     0.836800     1
   CG2O2    CG311    NG2S1    CG2O6     9   180.000000     0.836800     1
   CG2O2    CG311    NG2S1     HGP1     9     0.000000     0.000000     1
   CG2O2    CG311    NG321   HGPAM2     9     0.000000     0.669440     3
   CG2O2    CG311    OG311     HGP1     9   180.000000     3.556400     1
   CG2O2    CG311    OG311     HGP1     9   180.000000     1.589920     2
   CG2O2    CG311    OG311     HGP1     9     0.000000     1.464400     3
   CG2O2    CG321    CG321    CG311     9     0.000000     0.815880     3
   CG2O2    CG321    CG321    CG314     9     0.000000     0.815880     3
   CG2O2    CG321    CG321    CG321     9   180.000000     0.878640     1
   CG2O2    CG321    CG321    CG321     9     0.000000     1.631760     2
   CG2O2    CG321    CG321    CG321     9   180.000000     1.464400     3
   CG2O2    CG321    CG321    CG321     9     0.000000     0.460240     4
   CG2O2    CG321    CG321    CG321     9   180.000000     0.376560     6
   CG2O2    CG321    CG321    CG331     9   180.000000     0.878640     1
   CG2O2    CG321    CG321    CG331     9     0.000000     1.631760     2
   CG2O2    CG321    CG321    CG331     9   180.000000     1.464400     3
   CG2O2    CG321    CG321    CG331     9     0.000000     0.460240     4
   CG2O2    CG321    CG321    CG331     9   180.000000     0.376560     6
   CG2O2    CG321    CG321     HGA2     9     0.000000     0.815880     3
   CG2O2    CG321    CG331     HGA3     9     0.000000     0.669440     3
   CG2O2    CG321    NG2S1    CG2O1     9   180.000000     0.836800     1
   CG2O2    CG321    NG2S1    CG2O6     9   180.000000     0.836800     1
   CG2O2    CG321    NG2S1     HGP1     9     0.000000     0.000000     1
   CG2O2    CG321    NG311    CG321     9     0.000000     8.368000     1
   CG2O2    CG321    NG311    CG321     9     0.000000     7.531200     2
   CG2O2    CG321    NG311    CG321     9     0.000000     2.092000     3
   CG2O2    CG321    NG311    CG331     9     0.000000     8.368000     1
   CG2O2    CG321    NG311    CG331     9     0.000000     7.531200     2
   CG2O2    CG321    NG311    CG331     9     0.000000     2.092000     3
   CG2O2    CG321    NG311   HGPAM1     9   180.000000     2.510400     1
   CG2O2    CG321    NG311   HGPAM1     9     0.000000     1.255200     2
   CG2O2    CG321    NG311   HGPAM1     9     0.000000     2.092000     3
   CG2O2    CG321    NG321   HGPAM2     9     0.000000     0.669440     3
   CG2O2    CG321    OG301   CG2R61     9   180.000000     3.807440     1
   CG2O2    CG321    OG301   CG2R61     9     0.000000     2.092000     2
   CG2O2    CG321    OG301   CG2R62     9   180.000000     3.807440     1
   CG2O2    CG321    OG301   CG2R62     9     0.000000     2.092000     2
   CG2O2    CG321    OG301    CG331     9   180.000000     0.418400     1
   CG2O2    CG321    OG301    CG331     9     0.000000     3.347200     2
   CG2O2    CG321    OG301    CG331     9     0.000000     2.468560     3
   CG2O2    CG321      CT1        C     9     0.000000     0.836800     3
   CG2O2   CG3C31   CG3C31   CG2RC0     9     0.000000     8.242480     2
   CG2O2   CG3C31   CG3C31   CG2RC0     9     0.000000     0.794960     3
   CG2O2   CG3C31   CG3C31   CG2RC0     9     0.000000     0.209200     6
   CG2O2   CG3C31   CG3C31   CG3C31     9   180.000000     8.242480     2
   CG2O2   CG3C31   CG3C31   CG3C31     9     0.000000    20.920000     3
   CG2O2   CG3C31   CG3C31   CG3C31     9     0.000000    28.283840     6
   CG2O2   CG3C31   CG3C31     HGA2     9   180.000000     0.000000     5
   CG2O2   CG3C41   CG3C41   CG3RC1     9     0.000000     1.673600     3
   CG2O2   CG3C41   CG3C41   CG3RC1     9   180.000000     2.928800     6
   CG2O2   CG3C41   CG3C41     HGA2     9   180.000000     0.711280     3
   CG2O2   CG3C41   CG3RC1    CG321     9   180.000000     0.627600     3
   CG2O2   CG3C41   CG3RC1    CG321     9     0.000000    18.576960     6
   CG2O2   CG3C41   CG3RC1   CG3RC1     9   180.000000    17.028880     3
   CG2O2   CG3C41   CG3RC1   CG3RC1     9   180.000000     7.280160     6
   CG2O2   CG3C41   CG3RC1     HGA1     9   180.000000     0.000000     3
   CG2O2   CG3C50   CG3C50   CG3C52     9   180.000000     0.209200     3
   CG2O2   CG3C50   CG3C50   CG3C52     9     0.000000     2.133840     6
   CG2O2   CG3C50   CG3C52   CG3C52     9     0.000000     0.585760     3
   CG2O2   CG3C50   CG3C52     HGA2     9     0.000000     0.585760     3
   CG2O2   CG3C50    NG321   HGPAM2     9     0.000000     1.338880     2
   CG2O2   CG3C50    NG321   HGPAM2     9     0.000000     5.230000     3
   CG2O2   CG3C51   CG3C52   CG3C50     9     0.000000     0.585760     3
   CG2O2   CG3C51   CG3C52   CG3C52     9     0.000000     0.585760     3
   CG2O2   CG3C51   CG3C52   CG3RC1     9     0.000000     0.585760     3
   CG2O2   CG3C51   CG3C52   OG3C51     9     0.000000     3.012480     2
   CG2O2   CG3C51   CG3C52   OG3C51     9   180.000000     1.715440     3
   CG2O2   CG3C51   CG3C52   OG3C51     9     0.000000     0.292880     4
   CG2O2   CG3C51   CG3C52    SG311     9     0.000000     0.585760     3
   CG2O2   CG3C51   CG3C52     HGA2     9     0.000000     0.585760     3
   CG2O2   CG3C51   CG3RC1    CG321     9   180.000000     0.836800     3
   CG2O2   CG3C51   CG3RC1    CG321     9     0.000000     0.167360     6
   CG2O2   CG3C51   CG3RC1    CG331     9   180.000000     0.083680     3
   CG2O2   CG3C51   CG3RC1   CG3C51     9   180.000000     0.083680     2
   CG2O2   CG3C51   CG3RC1   CG3C51     9     0.000000     0.000000     3
   CG2O2   CG3C51   CG3RC1   CG3C52     9     0.000000     0.292880     2
   CG2O2   CG3C51   CG3RC1   CG3C52     9     0.000000     2.719600     3
   CG2O2   CG3C51   CG3RC1     HGA1     9     0.000000     0.000000     3
   CG2O2   CG3C51    NG2S0    CG2O1     9     0.000000     3.347200     3
   CG2O2   CG3C51    NG2S0   CG3RC1     9     0.000000     0.418400     3
   CG2O2   CG3C51   NG3C51   CG3C52     9   180.000000     1.548080     3
   CG2O2   CG3C51   NG3C51     HGP1     9     0.000000     0.167360     1
   CG2O2   CG3C51   NG3C51     HGP1     9     0.000000     2.426720     3
   CG2O2   CG3C51   NG3C51     HGP1     9   180.000000     0.376560     6
   CG2O2   CG3RC1    NG2S1    CG2O1     9     0.000000     0.083680     2
   CG2O2   CG3RC1    NG2S1    CG2O1     9   180.000000     1.924640     3
   CG2O2   CG3RC1    NG2S1     HGP1     9     0.000000     7.280160     1
   CG2O2   CG3RC1    NG2S1     HGP1     9     0.000000     0.125520     2
   CG2O2    OG303      PG1    OG2P1     9     0.000000     1.286580     3
   CG2O2    OG303      PG1    OG311     9     0.000000     1.869830     2
   CG2O2    OG303      PG1    OG311     9     0.000000     1.956857     3
   CG2O2    OG303      PG2    OG2P1     9   180.000000     1.096208     3
   CG2O4   CG2DC1   CG2DC1    CG331     9   180.000000     2.343040     1
   CG2O4   CG2DC1   CG2DC1    CG331     9   180.000000    29.288000     2
   CG2O4   CG2DC1   CG2DC3     HGA5     9   180.000000    13.388800     2
   CG2O4   CG2DC2   CG2DC2    CG331     9   180.000000     2.343040     1
   CG2O4   CG2DC2   CG2DC2    CG331     9   180.000000    29.288000     2
   CG2O4   CG2DC2   CG2DC3     HGA5     9   180.000000    13.388800     2
   CG2O4    CG2O4   CG2RC0   CG2RC0     9   180.000000     0.091630     2
   CG2O4    CG2O4   CG2RC0    NG311     9     0.000000     1.297040     2
   CG2O4    CG2O5    CG321    CG311     9     0.000000     0.125520     1
   CG2O4    CG2O5    CG321    CG311     9   180.000000     9.037440     2
   CG2O4    CG2O5    CG321    CG311     9     0.000000     1.548080     3
   CG2O4    CG2O5    CG321     HGA2     9   180.000000     0.000000     3
   CG2O4   CG2R51   CG2R51   CG2R51     9   180.000000     0.000000     2
   CG2O4   CG2R51   CG2R51    HGR51     9   180.000000     5.104480     2
   CG2O4   CG2R51   SG2R50   CG2R51     9   180.000000    20.041360     2
   CG2O4   CG2R52   NG2R50   NG2R51     9   180.000000    28.158320     2
   CG2O4   CG2R53   NG2R50   CG2R51     9     0.000000     0.000000     2
   CG2O4   CG2R53   NG2RC0   CG2R61     9     0.000000     0.376560     2
   CG2O4   CG2R53   NG2RC0   CG2RC0     9   180.000000     0.794960     2
   CG2O4   CG2R61   CG2R61   CG2R61     9   180.000000    12.970400     2
   CG2O4   CG2R61   CG2R61   CG2R66     9   180.000000    12.970400     2
   CG2O4   CG2R61   CG2R61   CG2RC0     9   180.000000    12.970400     2
   CG2O4   CG2R61   CG2R61    CG331     9   180.000000     2.970640     2
   CG2O4   CG2R61   CG2R61   NG2R60     9   180.000000     4.184000     2
   CG2O4   CG2R61   CG2R61    OG311     9   180.000000     3.807440     2
   CG2O4   CG2R61   CG2R61    SG311     9     0.000000     2.175680     2
   CG2O4   CG2R61   CG2R61    HGR61     9   180.000000    10.041600     2
   CG2O4   CG2R61   CG2R61    HGR62     9   180.000000    10.041600     2
   CG2O4   CG2R61   CG2R64   NG2R61     9   180.000000     0.543920     2
   CG2O4   CG2R61   CG2R64   NG2R62     9   180.000000     7.573040     2
   CG2O4   CG2R61   CG2R66   CG2R61     9   180.000000    12.970400     2
   CG2O4   CG2R61   CG2R66     FGR1     9   180.000000     3.012480     2
   CG2O4   CG2R61   CG2RC0   CG2R52     9     0.000000     0.376560     2
   CG2O4   CG2R61   CG2RC0   CG2RC0     9   180.000000    12.970400     2
   CG2O4   CG2R62   CG2R62   NG2R61     9   180.000000    10.460000     2
   CG2O4   CG2R62   CG2R62   NG2R62     9   180.000000    10.460000     2
   CG2O4   CG2R62   CG2R62    HGR62     9   180.000000    11.715200     2
   CG2O4   CG2R62   CG2R64   NG2R62     9   180.000000    15.062400     2
   CG2O4   CG2R62   CG2R64    NG2S3     9   180.000000     6.276000     2
   CG2O4   CG2RC0   CG2RC0    CG2O4     9   180.000000    12.552000     2
   CG2O4   CG2RC0   CG2RC0    NG311     9   180.000000    25.104000     2
   CG2O4   CG2RC0    NG311   CG2R61     9     0.000000     1.840960     2
   CG2O4   CG2RC0    NG311   HGPAM1     9   180.000000     1.338880     2
   CG2O4    CG311    CG311    CG331     9     0.000000     0.836800     3
   CG2O4    CG311    CG311    OG301     9   180.000000     8.368000     1
   CG2O4    CG311    CG311    OG301     9     0.000000     3.347200     2
   CG2O4    CG311    CG311     HGA1     9     0.000000     0.836800     3
   CG2O4    CG311    CG321     HGA2     9     0.000000     0.836800     3
   CG2O4    CG311    CG331     HGA3     9     0.000000     0.836800     3
   CG2O4    CG311    NG2S1    CG2O1     9   180.000000     0.836800     1
   CG2O4    CG311    NG2S1     HGP1     9     0.000000     0.000000     1
   CG2O4    CG311      CT1        C     9     0.000000     0.836800     3
   CG2O4    CG321    CG331     HGA3     9     0.000000     0.669440     3
   CG2O4    CG321   NG2R51   CG2R51     9     0.000000     2.780268     1
   CG2O4    CG321   NG2R51   CG2R51     9     0.000000    15.134783     2
   CG2O4    CG321   NG2R51   CG2R51     9     0.000000     5.473090     3
   CG2O4    CG321   NG2R51   CG2R53     9   180.000000     4.195297     1
   CG2O4    CG321   NG2R51   CG2R53     9   180.000000    13.788790     2
   CG2O4    CG321   NG2R51   CG2R53     9     0.000000     6.733311     3
   CG2O4    CG321      CT1        C     9     0.000000     0.836800     3
   CG2O4   CG3C41   CG3C41   CG3C41     9   180.000000     0.711280     2
   CG2O4   CG3C41   CG3C41   CG3C41     9     0.000000     4.016640     3
   CG2O4   CG3C41   CG3C41   OG3C51     9   180.000000     0.602914     3
   CG2O4   CG3C41   CG3C41     HGA2     9   180.000000     0.729271     3
   CG2O4   CG3C41   CG3RC1   CG3C53     9     0.000000     0.209200     2
   CG2O4   CG3C41   CG3RC1   CG3C53     9     0.000000     5.606560     3
   CG2O4   CG3C41   CG3RC1   CG3RC1     9   180.000000    16.777840     2
   CG2O4   CG3C41   CG3RC1   CG3RC1     9   180.000000     1.171520     3
   CG2O4   CG3C41   CG3RC1     HGA1     9   180.000000     0.000000     3
   CG2O4   CG3C41   OG3C51   CG3C41     9     0.000000     0.124265     2
   CG2O4   CG3RC1   CG3RC1   CG3C41     9   180.000000     9.790560     2
   CG2O4   CG3RC1   CG3RC1   CG3C41     9   180.000000     3.598240     3
   CG2O4   CG3RC1   CG3RC1   CG3C53     9     0.000000     2.594080     3
   CG2O4   CG3RC1   CG3RC1   CG3C53     9   180.000000     2.008320     6
   CG2O4   CG3RC1   CG3RC1     HGA1     9     0.000000     0.000000     3
  CG2R62   CG2DC1   CG2DC1    CG321     9   180.000000     2.343040     1
  CG2R62   CG2DC1   CG2DC1    CG321     9   180.000000    29.162480     2
  CG2R62   CG2DC1   CG2DC1    CG331     9   180.000000     2.343040     1
  CG2R62   CG2DC1   CG2DC1    CG331     9   180.000000    29.162480     2
  CG2R62   CG2DC1   CG2DC1     HGA4     9   180.000000    21.756800     2
  CG2R62   CG2DC1    CG321    CG321     9     0.000000     5.857600     3
  CG2R62   CG2DC1    CG321    CG321     9     0.000000     0.962320     6
  CG2R62   CG2DC1    CG321     HGA2     9   180.000000     0.000000     3
  CG2R62   CG2DC2   CG2DC2    CG321     9   180.000000     2.343040     1
  CG2R62   CG2DC2   CG2DC2    CG321     9   180.000000    29.162480     2
  CG2R62   CG2DC2   CG2DC2    CG331     9   180.000000     2.343040     1
  CG2R62   CG2DC2   CG2DC2    CG331     9   180.000000    29.162480     2
  CG2R62   CG2DC2   CG2DC2     HGA4     9   180.000000    21.756800     2
  CG2R62   CG2DC2    CG321    CG321     9     0.000000     5.857600     3
  CG2R62   CG2DC2    CG321    CG321     9     0.000000     0.962320     6
  CG2R62   CG2DC2    CG321     HGA2     9   180.000000     0.000000     3
  CG2R62    CG2N2    NG2P1     HGP2     9   180.000000     8.368000     2
  CG2R62    CG2O1    NG2D1    CG2N2     9     0.000000     7.698560     2
  CG2R62    CG2O1    NG2S2     HGP1     9   180.000000    10.460000     2
  CG2R62    CG2O2    OG311     HGP1     9   180.000000     4.058480     1
  CG2R62    CG2O2    OG311     HGP1     9   180.000000    11.296800     2
  CG2R62    CG2O2    OG311     HGP1     9   180.000000     0.209200     3
  CG2R62    CG2O2    OG311     HGP1     9   180.000000     1.046000     6
  CG2R62    CG2O2    SG311     HGP3     9   180.000000    12.091760     2
  CG2R62    CG2O5    CG331     HGA3     9     0.000000     0.418400     3
  CG2R62   CG2R51   CG2R51   CG3C54     9   180.000000    40.877680     2
  CG2R62   CG2R51   CG2R51   OG2R50     9   180.000000    22.258880     2
  CG2R62   CG2R51   CG2R51    HGR51     9     0.000000     0.000000     2
  CG2R62   CG2R51   CG2R51    HGR52     9   180.000000     2.552240     2
  CG2R62   CG2R51   CG3C54    NG3P2     9     0.000000     1.380720     2
  CG2R62   CG2R51   CG3C54    NG3P2     9   180.000000    14.644000     3
  CG2R62   CG2R51   CG3C54     HGA2     9     0.000000     0.000000     3
  CG2R62   CG2R52   NG2R50   NG2R51     9   180.000000    17.782000     2
  CG2R62   CG2R53   NG2R50   CG2R51     9   180.000000    16.736000     2
  CG2R62   CG2R53   SG2R50   CG2R51     9   180.000000    16.736000     2
  CG2R62   CG2R61   CG2R61   CG2R66     9   180.000000    12.970400     2
  CG2R62   CG2R61   CG2R61    CG331     9   180.000000    12.970400     2
  CG2R62   CG2R61   CG2R61    NG2S3     9   180.000000    20.920000     2
  CG2R62   CG2R61   CG2R61    OG311     9   180.000000    12.970400     2
  CG2R62   CG2R61   CG2R61    HGR61     9   180.000000    17.572800     2
  CG2R62   CG2R61   CG2R61    HGR62     9   180.000000    17.572800     2
  CG2R62   CG2R61   CG2R66   CG2R61     9   180.000000    12.970400     2
  CG2R62   CG2R61   CG2R66   CG2R66     9   180.000000    12.970400     2
  CG2R62   CG2R61   CG2R66     FGR1     9   180.000000    18.828000     2
  CG2R62   CG2R61    CG302     FGA3     9     0.000000     1.255200     2
  CG2R62   CG2R61    CG311    CG331     9   180.000000     0.962320     2
  CG2R62   CG2R61    CG311     HGA1     9   180.000000     0.418400     6
  CG2R62   CG2R61    CG321    CG331     9   180.000000     0.962320     2
  CG2R62   CG2R61    CG321     HGA2     9     0.000000     0.000000     6
  CG2R62   CG2R61    CG331     HGA3     9     0.000000     0.000000     6
  CG2R62   CG2R61   CG3C31   CG3C31     9   180.000000     9.581360     2
  CG2R62   CG2R61   CG3C31   CG3C31     9     0.000000     0.669440     6
  CG2R62   CG2R61   CG3C31     HGA1     9     0.000000     0.000000     6
  CG2R62   CG2R61    NG2S3     HGP4     9   180.000000     5.648400     2
  CG2R62   CG2R61    OG301    CG331     9   180.000000     6.610720     2
  CG2R62   CG2R61    OG301    CG331     9   180.000000     0.836800     4
  CG2R62   CG2R62   CG2R62   CG2R62     9   180.000000    25.104000     2
  CG2R62   CG2R62   CG2R62   CG2R63     9   180.000000    12.552000     2
  CG2R62   CG2R62   CG2R62   CG2R64     9   180.000000    12.552000     2
  CG2R62   CG2R62   CG2R62   CG2R66     9   180.000000    25.104000     2
  CG2R62   CG2R62   CG2R62   CG2R67     9   180.000000     8.368000     2
  CG2R62   CG2R62   CG2R62   CG2RC0     9   180.000000     8.368000     2
  CG2R62   CG2R62   CG2R62    CG301     9   180.000000     7.907760     2
  CG2R62   CG2R62   CG2R62    CG302     9   180.000000    16.694160     2
  CG2R62   CG2R62   CG2R62    CG311     9     0.000000     1.422560     2
  CG2R62   CG2R62   CG2R62    CG321     9     0.000000     0.000000     2
  CG2R62   CG2R62   CG2R62    CG331     9   180.000000     3.514560     2
  CG2R62   CG2R62   CG2R62   CG3C50     9     0.000000     0.000000     2
  CG2R62   CG2R62   CG2R62   CG3C51     9   180.000000    18.535120     2
  CG2R62   CG2R62   CG2R62    NG2D1     9     0.000000     0.000000     2
  CG2R62   CG2R62   CG2R62    NG2O1     9   180.000000     0.753120     2
  CG2R62   CG2R62   CG2R62    NG2P1     9     0.000000     0.000000     2
  CG2R62   CG2R62   CG2R62   NG2R51     9   180.000000    14.560320     2
  CG2R62   CG2R62   CG2R62   NG2R52     9   180.000000     7.029120     2
  CG2R62   CG2R62   CG2R62   NG2R60     9   180.000000     5.020800     2
  CG2R62   CG2R62   CG2R62   NG2R61     9   180.000000    29.288000     2
  CG2R62   CG2R62   CG2R62   NG2R62     9   180.000000     5.020800     2
  CG2R62   CG2R62   CG2R62   NG2R67     9   180.000000    14.644000     2
  CG2R62   CG2R62   CG2R62   NG2RC0     9   180.000000    29.288000     2
  CG2R62   CG2R62   CG2R62    NG2S1     9   180.000000    12.175440     2
  CG2R62   CG2R62   CG2R62    NG2S3     9     0.000000     1.631760     2
  CG2R62   CG2R62   CG2R62    NG301     9   180.000000     9.162960     2
  CG2R62   CG2R62   CG2R62    NG311     9   180.000000    15.480800     2
  CG2R62   CG2R62   CG2R62   NG3C51     9     0.000000     0.251040     2
  CG2R62   CG2R62   CG2R62    NG3N1     9     0.000000     3.179840     2
  CG2R62   CG2R62   CG2R62    OG301     9   180.000000     1.673600     2
  CG2R62   CG2R62   CG2R62    OG311     9   180.000000    12.552000     2
  CG2R62   CG2R62   CG2R62    OG312     9     0.000000     0.000000     2
  CG2R62   CG2R62   CG2R62   OG3R60     9   180.000000     1.673600     2
  CG2R62   CG2R62   CG2R62    SG302     9   180.000000     1.506240     2
  CG2R62   CG2R62   CG2R62    SG311     9     0.000000     0.209200     2
  CG2R62   CG2R62   CG2R62    SG3O2     9     0.000000     0.167360     2
  CG2R62   CG2R62   CG2R62    HGR62     9   180.000000     4.184000     2
  CG2R62   CG2R62   CG2R62    HGR63     9   180.000000     4.184000     2
  CG2R62   CG2R62   CG2R63   CG2R62     9   180.000000     6.694400     2
  CG2R62   CG2R62   CG2R63   NG2R61     9   180.000000     7.531200     2
  CG2R62   CG2R62   CG2R63   NG2R62     9   180.000000     3.347200     2
  CG2R62   CG2R62   CG2R63   NG2R67     9   180.000000     7.531200     2
  CG2R62   CG2R62   CG2R63    OG2D4     9   180.000000     4.184000     2
  CG2R62   CG2R62   CG2R63   OG3R60     9   180.000000     1.673600     2
  CG2R62   CG2R62   CG2R63    SG2D1     9   180.000000    18.828000     2
  CG2R62   CG2R62   CG2R64    NG2D1     9   180.000000    12.552000     2
  CG2R62   CG2R62   CG2R64    NG2P1     9   180.000000     2.510400     2
  CG2R62   CG2R62   CG2R64   NG2R61     9   180.000000    29.288000     2
  CG2R62   CG2R62   CG2R64   NG2R62     9   180.000000     2.510400     2
  CG2R62   CG2R62   CG2R64    NG2S1     9   180.000000    12.970400     2
  CG2R62   CG2R62   CG2R64    NG2S3     9   180.000000     8.368000     2
  CG2R62   CG2R62   CG2R64    NG301     9   180.000000    12.970400     2
  CG2R62   CG2R62   CG2R64    NG311     9   180.000000    12.970400     2
  CG2R62   CG2R62   CG2R66   CG2R61     9   180.000000     2.092000     2
  CG2R62   CG2R62   CG2R66   NG2R61     9   180.000000    18.702480     2
  CG2R62   CG2R62   CG2R66     FGR1     9   180.000000    18.828000     2
  CG2R62   CG2R62   CG2R67   CG2R61     9   180.000000    12.970400     2
  CG2R62   CG2R62   CG2R67   CG2R62     9   180.000000    12.970400     2
  CG2R62   CG2R62   CG2R67   CG2R67     9   180.000000    12.970400     2
  CG2R62   CG2R62   CG2R67   CG2RC0     9   180.000000     1.046000     2
  CG2R62   CG2R62   CG2R67   NG2R61     9     0.000000     0.000000     2
  CG2R62   CG2R62   CG2R67   NG2RC0     9   180.000000     7.322000     2
  CG2R62   CG2R62   CG2RC0   CG2R52     9   180.000000     6.276000     2
  CG2R62   CG2R62   CG2RC0   CG2RC0     9   180.000000    12.552000     2
  CG2R62   CG2R62   CG2RC0   CG3C52     9   180.000000     0.000000     2
  CG2R62   CG2R62   CG2RC0   NG2R51     9   180.000000    12.552000     2
  CG2R62   CG2R62   CG2RC0   NG2R52     9   180.000000    12.886720     2
  CG2R62   CG2R62   CG2RC0   NG2R61     9     0.000000     0.125520     2
  CG2R62   CG2R62   CG2RC0   NG2RC0     9   180.000000    14.644000     2
  CG2R62   CG2R62   CG2RC0   NG3C51     9   180.000000    25.104000     2
  CG2R62   CG2R62   CG2RC0   OG2R50     9   180.000000     0.000000     2
  CG2R62   CG2R62    CG301    CG331     9   180.000000     0.962320     2
  CG2R62   CG2R62    CG302     FGA3     9     0.000000     1.255200     2
  CG2R62   CG2R62    CG311    CG2O2     9     0.000000     0.836800     2
  CG2R62   CG2R62    CG311    CG2O3     9   180.000000     0.962320     2
  CG2R62   CG2R62    CG311   CG2R61     9   180.000000     0.962320     2
  CG2R62   CG2R62    CG311    CG311     9     0.000000     1.673600     2
  CG2R62   CG2R62    CG311    CG321     9     0.000000     1.673600     2
  CG2R62   CG2R62    CG311    CG324     9   180.000000     2.719600     2
  CG2R62   CG2R62    CG311    CG331     9     0.000000     1.673600     2
  CG2R62   CG2R62    CG311    OG311     9   180.000000     2.928800     2
  CG2R62   CG2R62    CG311     HGA1     9   180.000000     0.418400     6
  CG2R62   CG2R62    CG312     FGA2     9     0.000000     1.255200     2
  CG2R62   CG2R62    CG312     HGA7     9     0.000000     0.125520     2
  CG2R62   CG2R62    CG312     HGA7     9     0.000000     0.502080     3
  CG2R62   CG2R62    CG321    CG1N1     9   180.000000     1.631760     2
  CG2R62   CG2R62    CG321    CG1N1     9     0.000000     0.167360     4
  CG2R62   CG2R62    CG321    CG2O1     9     0.000000     0.418400     2
  CG2R62   CG2R62    CG321    CG2O2     9     0.000000     0.418400     2
  CG2R62   CG2R62    CG321    CG2O3     9     0.000000     0.418400     4
  CG2R62   CG2R62    CG321    CG311     9   180.000000     0.962320     2
  CG2R62   CG2R62    CG321    CG321     9     0.000000     1.673600     2
  CG2R62   CG2R62    CG321    CG324     9   180.000000     2.719600     2
  CG2R62   CG2R62    CG321    NG2S0     9     0.000000     0.502080     2
  CG2R62   CG2R62    CG321    NG2S0     9   180.000000     0.543920     4
  CG2R62   CG2R62    CG321    NG2S0     9   180.000000     0.041840     6
  CG2R62   CG2R62    CG321    NG301     9   180.000000     4.184000     2
  CG2R62   CG2R62    CG321    NG311     9   180.000000     4.184000     2
  CG2R62   CG2R62    CG321    NG321     9   180.000000     4.184000     2
  CG2R62   CG2R62    CG321    OG311     9     0.000000     0.000000     2
  CG2R62   CG2R62    CG321   OG3C61     9     0.000000     0.000000     2
  CG2R62   CG2R62    CG321     HGA2     9     0.000000     0.251040     4
  CG2R62   CG2R62    CG324    NG3P1     9     0.000000     0.836800     2
  CG2R62   CG2R62    CG324    NG3P2     9     0.000000     0.836800     2
  CG2R62   CG2R62    CG324    NG3P3     9   180.000000     2.092000     2
  CG2R62   CG2R62    CG324     HGA2     9     0.000000     0.209200     2
  CG2R62   CG2R62    CG331     HGA3     9     0.000000     1.924640     3
  CG2R62   CG2R62   CG3C31   CG3C31     9   180.000000     5.062640     2
  CG2R62   CG2R62   CG3C31   CG3C31     9     0.000000     2.594080     4
  CG2R62   CG2R62   CG3C31     HGA1     9     0.000000     0.000000     4
  CG2R62   CG2R62   CG3C41   CG3C41     9     0.000000     2.175680     2
  CG2R62   CG2R62   CG3C41   CG3C41     9   180.000000     0.794960     6
  CG2R62   CG2R62   CG3C41     HGA1     9     0.000000     0.000000     3
  CG2R62   CG2R62   CG3C50   CG3C52     9   180.000000     2.008320     2
  CG2R62   CG2R62   CG3C50   CG3C52     9   180.000000     0.167360     6
  CG2R62   CG2R62   CG3C50    OG311     9   180.000000     8.284320     2
  CG2R62   CG2R62   CG3C51   CG3C52     9   180.000000     1.087840     2
  CG2R62   CG2R62   CG3C51   CG3C52     9     0.000000     4.811600     6
  CG2R62   CG2R62   CG3C51   CG3C54     9     0.000000     5.271840     2
  CG2R62   CG2R62   CG3C51   CG3C54     9   180.000000     8.660880     4
  CG2R62   CG2R62   CG3C51     HGA1     9     0.000000     0.000000     4
  CG2R62   CG2R62    NG2D1   CG2R64     9     0.000000     0.000000     2
  CG2R62   CG2R62    NG2D1   CG2R64     9     0.000000     3.765600     3
  CG2R62   CG2R62    NG2O1   CG2R62     9     0.000000     0.000000     2
  CG2R62   CG2R62    NG2O1    OG2N1     9   180.000000     3.765600     2
  CG2R62   CG2R62    NG2P1    CG324     9   180.000000     1.673600     2
  CG2R62   CG2R62    NG2P1     HGP2     9   180.000000     0.000000     2
  CG2R62   CG2R62   NG2R51   CG2R51     9     0.000000     0.836800     1
  CG2R62   CG2R62   NG2R51   CG2R51     9   180.000000     4.602400     2
  CG2R62   CG2R62   NG2R51   CG2R51     9     0.000000     2.510400     3
  CG2R62   CG2R62   NG2R52   CG3C54     9   180.000000     8.577200     2
  CG2R62   CG2R62   NG2R60   CG2R61     9   180.000000     5.020800     2
  CG2R62   CG2R62   NG2R60   CG2R62     9   180.000000     5.020800     2
  CG2R62   CG2R62   NG2R60   CG2R64     9   180.000000     5.020800     2
  CG2R62   CG2R62   NG2R60   CG2R67     9   180.000000     5.020800     2
  CG2R62   CG2R62   NG2R61   CG2R51     9   180.000000    17.740160     2
  CG2R62   CG2R62   NG2R61   CG2R53     9   180.000000    13.639840     2
  CG2R62   CG2R62   NG2R61   CG2R61     9   180.000000    16.736000     2
  CG2R62   CG2R62   NG2R61   CG2R62     9   180.000000    16.736000     2
  CG2R62   CG2R62   NG2R61   CG2R63     9   180.000000     2.510400     2
  CG2R62   CG2R62   NG2R61   CG2R64     9   180.000000     3.347200     2
  CG2R62   CG2R62   NG2R61   CG2R67     9   180.000000    16.736000     2
  CG2R62   CG2R62   NG2R61   CG2RC0     9   180.000000    16.736000     2
  CG2R62   CG2R62   NG2R61    CG311     9   180.000000    46.024000     2
  CG2R62   CG2R62   NG2R61    CG312     9     0.000000     0.334720     2
  CG2R62   CG2R62   NG2R61    CG314     9   180.000000    46.024000     2
  CG2R62   CG2R62   NG2R61    CG321     9   180.000000    46.024000     2
  CG2R62   CG2R62   NG2R61    CG324     9   180.000000    46.024000     2
  CG2R62   CG2R62   NG2R61    CG331     9   180.000000    46.024000     2
  CG2R62   CG2R62   NG2R61    CG334     9   180.000000    19.999520     2
  CG2R62   CG2R62   NG2R61   CG3C51     9   180.000000    46.024000     2
  CG2R62   CG2R62   NG2R61   CG3C53     9   180.000000    46.024000     2
  CG2R62   CG2R62   NG2R61   CG3RC1     9   180.000000     4.184000     2
  CG2R62   CG2R62   NG2R61    NG2D1     9   180.000000    40.166400     2
  CG2R62   CG2R62   NG2R61    OG301     9   180.000000    14.560320     2
  CG2R62   CG2R62   NG2R61    OG311     9   180.000000    28.744080     2
  CG2R62   CG2R62   NG2R61   OG3R60     9   180.000000    24.518240     2
  CG2R62   CG2R62   NG2R61     FGP1     9   180.000000    48.869120     2
  CG2R62   CG2R62   NG2R61     HGP1     9   180.000000     4.184000     2
  CG2R62   CG2R62   NG2R61     HGP2     9   180.000000     4.184000     2
  CG2R62   CG2R62   NG2R61     CN7B     9   180.000000    46.024000     2
  CG2R62   CG2R62   NG2R62   CG2R62     9   180.000000    11.296800     2
  CG2R62   CG2R62   NG2R62   CG2R63     9   180.000000     8.368000     2
  CG2R62   CG2R62   NG2R62   CG2R64     9   180.000000     2.092000     2
  CG2R62   CG2R62   NG2R62   CG2RC0     9   180.000000    11.296800     2
  CG2R62   CG2R62   NG2R62   NG2R62     9   180.000000     3.347200     2
  CG2R62   CG2R62   NG2R62   NG2R67     9   180.000000    13.681680     2
  CG2R62   CG2R62   NG2R67   CG2R62     9   180.000000    16.736000     2
  CG2R62   CG2R62   NG2R67   CG2R63     9   180.000000     2.510400     2
  CG2R62   CG2R62   NG2R67   CG2R67     9   180.000000    16.736000     2
  CG2R62   CG2R62   NG2RC0   CG2R51     9   180.000000     0.000000     2
  CG2R62   CG2R62   NG2RC0   CG2R67     9     0.000000     7.280160     2
  CG2R62   CG2R62   NG2RC0   CG2RC0     9   180.000000     2.092000     2
  CG2R62   CG2R62   NG2RC0   CG3C54     9   180.000000     4.644240     2
  CG2R62   CG2R62    NG2S1    CG2O1     9   180.000000     5.020800     2
  CG2R62   CG2R62    NG2S1     HGP1     9   180.000000     2.092000     2
  CG2R62   CG2R62    NG2S3     HGP4     9   180.000000     5.648400     2
  CG2R62   CG2R62    NG301    CG311     9   180.000000     6.276000     2
  CG2R62   CG2R62    NG301    CG311     9     0.000000     0.627600     4
  CG2R62   CG2R62    NG301    CG321     9   180.000000     6.276000     2
  CG2R62   CG2R62    NG301    CG321     9     0.000000     0.627600     4
  CG2R62   CG2R62    NG301    CG331     9   180.000000     4.016640     2
  CG2R62   CG2R62    NG301    CG331     9     0.000000     0.418400     4
  CG2R62   CG2R62    NG301    CG331     9   180.000000     0.167360     6
  CG2R62   CG2R62    NG311   CG2R61     9     0.000000     0.041840     2
  CG2R62   CG2R62    NG311    CG311     9   180.000000     5.020800     2
  CG2R62   CG2R62    NG311    CG311     9     0.000000     1.255200     4
  CG2R62   CG2R62    NG311    CG331     9   180.000000     5.020800     2
  CG2R62   CG2R62    NG311    CG331     9     0.000000     1.255200     4
  CG2R62   CG2R62    NG311   HGPAM1     9   180.000000     5.397360     2
  CG2R62   CG2R62   NG3C51   CG2RC0     9   180.000000    11.296800     2
  CG2R62   CG2R62   NG3C51   CG2RC0     9   180.000000     2.133840     6
  CG2R62   CG2R62   NG3C51   CG3C51     9   180.000000     2.886960     2
  CG2R62   CG2R62   NG3C51   CG3C51     9   180.000000     5.481040     3
  CG2R62   CG2R62   NG3C51   CG3C51     9   180.000000     2.677760     4
  CG2R62   CG2R62   NG3C51   CG3C52     9   180.000000     4.978960     2
  CG2R62   CG2R62   NG3C51   CG3C52     9     0.000000     2.259360     3
  CG2R62   CG2R62   NG3C51   CG3C52     9     0.000000     2.886960     4
  CG2R62   CG2R62   NG3C51   CG3C52     9   180.000000     1.338880     6
  CG2R62   CG2R62    NG3N1    NG3N1     9   180.000000     9.916080     2
  CG2R62   CG2R62    NG3N1     HGP1     9     0.000000     0.000000     2
  CG2R62   CG2R62    OG301    CG321     9   180.000000     6.610720     2
  CG2R62   CG2R62    OG301    CG321     9   180.000000     0.836800     4
  CG2R62   CG2R62    OG301    CG331     9   180.000000     6.610720     2
  CG2R62   CG2R62    OG301    CG331     9   180.000000     0.836800     4
  CG2R62   CG2R62    OG311     HGP1     9   180.000000     4.142160     2
  CG2R62   CG2R62   OG3R60   CG2R62     9     0.000000     3.932960     2
  CG2R62   CG2R62   OG3R60   CG2R63     9     0.000000     3.932960     2
  CG2R62   CG2R62   OG3R60    CG321     9   180.000000     9.665040     2
  CG2R62   CG2R62   OG3R60    CG321     9     0.000000     2.845120     4
  CG2R62   CG2R62    SG311   CG2R63     9     0.000000     7.322000     2
  CG2R62   CG2R62    SG311    CG321     9     0.000000     3.932960     1
  CG2R62   CG2R62    SG311    CG321     9     0.000000     0.920480     2
  CG2R62   CG2R62    SG3O2    CG331     9     0.000000     2.468560     2
  CG2R62   CG2R62    SG3O2    OG2P1     9     0.000000     0.000000     6
  CG2R62   CG2R62     CN7B     ON6B     9   180.000000     2.928800     3
  CG2R62   CG2R62     CN7B     CN7B     9   180.000000     3.347200     3
  CG2R62   CG2R62     CN7B      HN7     9   180.000000     0.000000     3
  CG2R62   CG2R62     CN7B      ON6     9   180.000000     2.928800     3
  CG2R62   CG2R62     CN7B      CN8     9   180.000000     3.347200     3
  CG2R62   CG2R63   NG2R61   CG2D1O     9     0.000000     0.000000     2
  CG2R62   CG2R63   NG2R61   CG2D2O     9     0.000000     0.000000     2
  CG2R62   CG2R63   NG2R61    CG2N1     9   180.000000     0.502080     2
  CG2R62   CG2R63   NG2R61   CG2R61     9   180.000000     6.276000     2
  CG2R62   CG2R63   NG2R61   CG2R62     9   180.000000     6.276000     2
  CG2R62   CG2R63   NG2R61   CG2R63     9   180.000000     6.276000     2
  CG2R62   CG2R63   NG2R61   CG2R64     9   180.000000     2.092000     2
  CG2R62   CG2R63   NG2R61   CG2R66     9   180.000000     6.276000     2
  CG2R62   CG2R63   NG2R61   CG2RC0     9   180.000000     6.276000     2
  CG2R62   CG2R63   NG2R61    CG301     9   180.000000    23.012000     2
  CG2R62   CG2R63   NG2R61    CG311     9   180.000000    23.012000     2
  CG2R62   CG2R63   NG2R61    CG312     9   180.000000     0.376560     2
  CG2R62   CG2R63   NG2R61    CG321     9   180.000000    23.012000     2
  CG2R62   CG2R63   NG2R61    CG324     9     0.000000     0.543920     2
  CG2R62   CG2R63   NG2R61    CG331     9   180.000000    23.012000     2
  CG2R62   CG2R63   NG2R61   CG3C52     9     0.000000    17.865680     2
  CG2R62   CG2R63   NG2R61    NG2O1     9   180.000000     9.455840     2
  CG2R62   CG2R63   NG2R61   NG2R61     9   180.000000     5.230000     2
  CG2R62   CG2R63   NG2R61    NG2S3     9     0.000000     0.083680     2
  CG2R62   CG2R63   NG2R61    OG311     9   180.000000     8.493520     2
  CG2R62   CG2R63   NG2R61     HGP1     9   180.000000    20.083200     2
  CG2R62   CG2R63   NG2R62   CG2R64     9   180.000000     1.673600     2
  CG2R62   CG2R63   NG2R67   CG2R62     9   180.000000     6.276000     2
  CG2R62   CG2R63   NG2R67   CG2R63     9   180.000000     6.276000     2
  CG2R62   CG2R63   NG2R67   CG2R64     9   180.000000     2.092000     2
  CG2R62   CG2R63   NG2R67   CG2R67     9   180.000000     6.276000     2
  CG2R62   CG2R63   NG2R67   NG2R62     9     0.000000     5.104480     2
  CG2R62   CG2R63   OG3R60   CG2R62     9     0.000000     2.510400     2
  CG2R62   CG2R63   OG3R60   CG2R67     9     0.000000     2.510400     2
  CG2R62   CG2R64    NG2D1     HGP1     9   180.000000    28.660400     2
  CG2R62   CG2R64    NG2P1   CG2R63     9   180.000000     2.510400     2
  CG2R62   CG2R64    NG2P1    CG334     9   180.000000    14.016400     2
  CG2R62   CG2R64    NG2P1     HGP2     9   180.000000    10.041600     2
  CG2R62   CG2R64    NG2P1     HGP2     9   180.000000     2.928800     3
  CG2R62   CG2R64   NG2R61   CG2R63     9   180.000000     2.510400     2
  CG2R62   CG2R64   NG2R61   CG2R64     9   180.000000     2.510400     2
  CG2R62   CG2R64   NG2R61    CG331     9   180.000000     0.000000     2
  CG2R62   CG2R64   NG2R61     HGP1     9   180.000000     0.041840     2
  CG2R62   CG2R64   NG2R62   CG2R61     9   180.000000     8.368000     2
  CG2R62   CG2R64   NG2R62   CG2R62     9   180.000000     8.368000     2
  CG2R62   CG2R64   NG2R62   CG2R63     9   180.000000    25.104000     2
  CG2R62   CG2R64   NG2R62   CG2R64     9   180.000000    25.104000     2
  CG2R62   CG2R64    NG2S1    CG2O1     9     0.000000     3.347200     1
  CG2R62   CG2R64    NG2S1    CG2O1     9   180.000000     9.204800     2
  CG2R62   CG2R64    NG2S1    CG2O1     9     0.000000     1.673600     3
  CG2R62   CG2R64    NG2S1     HGP1     9   180.000000     2.092000     2
  CG2R62   CG2R64    NG2S3     HGP4     9   180.000000     8.368000     2
  CG2R62   CG2R64    NG301   CG2R61     9   180.000000     0.292880     2
  CG2R62   CG2R64    NG301    CG321     9   180.000000     1.506240     2
  CG2R62   CG2R64    NG301    CG331     9   180.000000     8.284320     2
  CG2R62   CG2R64    NG311    CG311     9     0.000000     4.602400     1
  CG2R62   CG2R64    NG311    CG311     9   180.000000     8.368000     2
  CG2R62   CG2R64    NG311    CG331     9     0.000000     5.857600     1
  CG2R62   CG2R64    NG311    CG331     9   180.000000    11.296800     2
  CG2R62   CG2R64    NG311    OG311     9     0.000000     4.727920     1
  CG2R62   CG2R64    NG311    OG311     9   180.000000    26.442880     2
  CG2R62   CG2R64    NG311    OG311     9   180.000000     3.556400     3
  CG2R62   CG2R64    NG311     HGP1     9   180.000000    12.552000     2
  CG2R62   CG2R64    NG311   HGPAM1     9   180.000000    12.552000     2
  CG2R62   CG2R66   NG2R61   CG2R63     9   180.000000     2.092000     2
  CG2R62   CG2R66   NG2R61     HGP1     9   180.000000     4.184000     2
  CG2R62   CG2R67   CG2R67   CG2R62     9   180.000000     1.924640     2
  CG2R62   CG2R67   CG2R67   CG2R62     9     0.000000     0.962320     4
  CG2R62   CG2R67   CG2R67   CG2R66     9   180.000000     1.799120     2
  CG2R62   CG2R67   CG2R67   CG2R66     9     0.000000     0.502080     4
  CG2R62   CG2R67   CG2R67   CG2R66     9   180.000000     0.083680     6
  CG2R62   CG2R67   CG2R67   CG2RC0     9   180.000000     8.368000     2
  CG2R62   CG2R67   CG2R67   NG2R60     9     0.000000     1.589920     1
  CG2R62   CG2R67   CG2R67   NG2R60     9   180.000000     3.932960     2
  CG2R62   CG2R67   CG2R67   NG2R60     9   180.000000     0.794960     3
  CG2R62   CG2R67   CG2R67   NG2R60     9     0.000000     0.669440     4
  CG2R62   CG2R67   CG2R67   NG2R61     9     0.000000     1.966480     1
  CG2R62   CG2R67   CG2R67   NG2R61     9     0.000000     0.585760     2
  CG2R62   CG2R67   CG2R67   NG2R61     9   180.000000     0.125520     3
  CG2R62   CG2R67   CG2R67   NG2R61     9     0.000000     4.016640     4
  CG2R62   CG2R67   CG2R67   NG2R61     9     0.000000     0.000000     6
  CG2R62   CG2R67   CG2RC0   CG2R62     9   180.000000     0.209200     2
  CG2R62   CG2R67   CG2RC0   NG2R51     9   180.000000    12.552000     2
  CG2R62   CG2R67   NG2R61   CG2R62     9   180.000000    16.652320     2
  CG2R62   CG2R67   NG2R61     FGP1     9   180.000000    38.325440     2
  CG2R62   CG2R67   NG2RC0   CG2R51     9   180.000000     7.907760     2
  CG2R62   CG2R67   NG2RC0   CG2R61     9     0.000000     0.292880     2
  CG2R62   CG2R67   NG2RC0   CG2R62     9     0.000000     2.845120     2
  CG2R62   CG2R67   NG2RC0   CG2RC0     9     0.000000     0.000000     2
  CG2R62   CG2RC0   CG2RC0   CG2R62     9   180.000000    12.552000     2
  CG2R62   CG2RC0   CG2RC0   CG2R63     9   180.000000    12.552000     2
  CG2R62   CG2RC0   CG2RC0   CG3C51     9   180.000000    27.196000     2
  CG2R62   CG2RC0   CG2RC0   CG3C52     9   180.000000    27.196000     2
  CG2R62   CG2RC0   CG2RC0   NG2R51     9   180.000000     6.276000     2
  CG2R62   CG2RC0   CG2RC0   NG2R52     9   180.000000     6.276000     2
  CG2R62   CG2RC0   CG2RC0   NG2R61     9   180.000000     8.368000     2
  CG2R62   CG2RC0   CG2RC0   NG3C51     9   180.000000    25.104000     2
  CG2R62   CG2RC0   CG3C52   CG3C52     9   180.000000    12.552000     2
  CG2R62   CG2RC0   CG3C52     HGA2     9   180.000000     2.092000     3
  CG2R62   CG2RC0   NG2R51   CG2RC0     9   180.000000     2.092000     2
  CG2R62   CG2RC0   NG2R51    CG331     9     0.000000     2.468560     2
  CG2R62   CG2RC0   NG2R51   NG2R51     9   180.000000     8.995600     2
  CG2R62   CG2RC0   NG2R51     HGP1     9   180.000000     0.836800     2
  CG2R62   CG2RC0   NG2R52   CG2R51     9   180.000000    50.208000     2
  CG2R62   CG2RC0   NG2R52   CG2R63     9     0.000000    15.773680     2
  CG2R62   CG2RC0   NG2R52   CG3C54     9   180.000000    27.530720     2
  CG2R62   CG2RC0   NG2R52    NG3N1     9     0.000000     0.585760     2
  CG2R62   CG2RC0   NG2R61   CG2R63     9     0.000000     1.589920     2
  CG2R62   CG2RC0   NG2R61   CG3C52     9     0.000000     0.000000     2
  CG2R62   CG2RC0   NG2RC0   CG2R51     9   180.000000     4.184000     2
  CG2R62   CG2RC0   NG2RC0   CG2R62     9   180.000000     3.347200     2
  CG2R62   CG2RC0   NG2RC0   CG3C54     9   180.000000    17.321760     2
  CG2R62   CG2RC0   NG2RC0   NG2R61     9     0.000000     0.000000     2
  CG2R62   CG2RC0   NG3C51   CG3C53     9   180.000000     3.012480     2
  CG2R62   CG2RC0   NG3C51     HGP1     9     0.000000     0.000000     3
  CG2R62   CG2RC0   OG2R50   CG2R51     9   180.000000    35.564000     2
  CG2R62    CG301    CG331     HGA3     9     0.000000     0.167360     3
  CG2R62    CG311    CG311    CG321     9     0.000000     0.167360     3
  CG2R62    CG311    CG311    OG311     9     0.000000     0.000000     2
  CG2R62    CG311    CG311    OG311     9   180.000000     2.594080     3
  CG2R62    CG311    CG311     HGA1     9     0.000000     0.000000     3
  CG2R62    CG311    CG321    CG2O5     9   180.000000     1.297040     3
  CG2R62    CG311    CG321    CG311     9     0.000000     0.167360     3
  CG2R62    CG311    CG321    CG321     9     0.000000     0.167360     3
  CG2R62    CG311    CG321    NG301     9     0.000000    10.627360     3
  CG2R62    CG311    CG321     HGA2     9     0.000000     0.000000     3
  CG2R62    CG311    CG324    NG3P2     9     0.000000     0.836800     3
  CG2R62    CG311    CG324     HGA2     9     0.000000     0.000000     3
  CG2R62    CG311    CG331     HGA3     9     0.000000     0.000000     3
  CG2R62    CG311    OG311     HGP1     9     0.000000     4.518720     1
  CG2R62    CG311    OG311     HGP1     9     0.000000     2.259360     2
  CG2R62    CG311    OG311     HGP1     9     0.000000     3.221680     3
  CG2R62    CG321    CG321    CG311     9     0.000000     0.167360     3
  CG2R62    CG321    CG321    CG321     9     0.000000     0.167360     3
  CG2R62    CG321    CG321    CG324     9   180.000000     0.418400     3
  CG2R62    CG321    CG321    NG2S0     9     0.000000     0.794960     3
  CG2R62    CG321    CG321    NG301     9     0.000000     0.167360     3
  CG2R62    CG321    CG321   OG3C61     9     0.000000     4.769760     1
  CG2R62    CG321    CG321   OG3C61     9     0.000000     6.317840     3
  CG2R62    CG321    CG321     HGA2     9     0.000000     0.167360     3
  CG2R62    CG321    CG324    NG3P1     9     0.000000     0.836800     3
  CG2R62    CG321    CG324     HGA2     9     0.000000     0.167360     3
  CG2R62    CG321    NG2S0    CG2O1     9   180.000000    14.267440     1
  CG2R62    CG321    NG2S0    CG2O1     9     0.000000     1.046000     2
  CG2R62    CG321    NG2S0    CG2O1     9     0.000000     4.978960     3
  CG2R62    CG321    NG2S0    CG2O1     9   180.000000     0.585760     4
  CG2R62    CG321    NG2S0    CG2O1     9   180.000000     0.418400     6
  CG2R62    CG321    NG2S0    CG321     9     0.000000     0.502080     1
  CG2R62    CG321    NG2S0    CG321     9     0.000000     8.409840     4
  CG2R62    CG321    NG301    CG321     9   180.000000     3.347200     1
  CG2R62    CG321    NG301    CG321     9     0.000000     2.092000     2
  CG2R62    CG321    NG301    CG321     9     0.000000     2.928800     3
  CG2R62    CG321    NG301    CG331     9   180.000000     3.347200     1
  CG2R62    CG321    NG301    CG331     9     0.000000     2.092000     2
  CG2R62    CG321    NG301    CG331     9     0.000000     2.928800     3
  CG2R62    CG321    NG311    CG321     9   180.000000     3.347200     1
  CG2R62    CG321    NG311    CG321     9     0.000000     2.092000     2
  CG2R62    CG321    NG311    CG321     9     0.000000     2.928800     3
  CG2R62    CG321    NG311    CG331     9   180.000000     3.347200     1
  CG2R62    CG321    NG311    CG331     9     0.000000     2.092000     2
  CG2R62    CG321    NG311    CG331     9     0.000000     2.928800     3
  CG2R62    CG321    NG311   HGPAM1     9     0.000000     1.255200     3
  CG2R62    CG321    NG321   HGPAM2     9     0.000000     1.255200     3
  CG2R62    CG321    OG311     HGP1     9     0.000000     8.786400     1
  CG2R62    CG321    OG311     HGP1     9     0.000000     5.857600     2
  CG2R62    CG321    OG311     HGP1     9     0.000000     4.602400     3
  CG2R62    CG321   OG3C61    CG321     9     0.000000     4.727920     1
  CG2R62    CG321   OG3C61    CG321     9     0.000000     1.715440     2
  CG2R62    CG321   OG3C61    CG321     9     0.000000     0.000000     3
  CG2R62    CG321   OG3C61    CG321     9   180.000000     0.292880     4
  CG2R62    CG324    NG3P1    CG324     9   180.000000     7.112800     1
  CG2R62    CG324    NG3P1    CG324     9   180.000000     3.347200     2
  CG2R62    CG324    NG3P1    CG324     9     0.000000     2.426720     3
  CG2R62    CG324    NG3P1    CG334     9   180.000000     7.112800     1
  CG2R62    CG324    NG3P1    CG334     9   180.000000     3.347200     2
  CG2R62    CG324    NG3P1    CG334     9     0.000000     2.426720     3
  CG2R62    CG324    NG3P1     HGP2     9     0.000000     0.167360     3
  CG2R62    CG324    NG3P2    CG324     9   180.000000     2.719600     1
  CG2R62    CG324    NG3P2    CG324     9     0.000000     3.263520     3
  CG2R62    CG324    NG3P2    CG334     9   180.000000     2.719600     1
  CG2R62    CG324    NG3P2    CG334     9     0.000000     3.263520     3
  CG2R62    CG324    NG3P2     HGP2     9     0.000000     0.418400     3
  CG2R62    CG324    NG3P3     HGP2     9     0.000000     0.167360     3
  CG2R62   CG3C31   CG3C31   CG3C31     9   180.000000    10.376320     3
  CG2R62   CG3C31   CG3C31   CG3C31     9     0.000000     0.041840     6
  CG2R62   CG3C31   CG3C31     HGA2     9   180.000000     0.000000     5
  CG2R62   CG3C41   CG3C41   CG3C41     9     0.000000     1.213360     3
  CG2R62   CG3C41   CG3C41   CG3C41     9   180.000000     2.133840     6
  CG2R62   CG3C41   CG3C41     HGA2     9   180.000000     0.000000     3
  CG2R62   CG3C50   CG3C52   CG3C52     9     0.000000     4.142160     3
  CG2R62   CG3C50   CG3C52   CG3C52     9   180.000000     1.799120     4
  CG2R62   CG3C50   CG3C52     HGA2     9     0.000000     0.000000     3
  CG2R62   CG3C50    OG311     HGP1     9   180.000000     0.460240     1
  CG2R62   CG3C50    OG311     HGP1     9     0.000000     8.870080     2
  CG2R62   CG3C50    OG311     HGP1     9     0.000000     2.510400     3
  CG2R62   CG3C50    OG311     HGP1     9   180.000000     0.083680     4
  CG2R62   CG3C51   CG3C52   CG2R53     9   180.000000     1.631760     3
  CG2R62   CG3C51   CG3C52   CG2R53     9   180.000000     4.895280     4
  CG2R62   CG3C51   CG3C52   CG3C54     9   180.000000     1.506240     3
  CG2R62   CG3C51   CG3C52   CG3C54     9     0.000000     4.267680     4
  CG2R62   CG3C51   CG3C52   NG2R53     9     0.000000     9.916080     3
  CG2R62   CG3C51   CG3C52   NG2R53     9     0.000000     0.962320     4
  CG2R62   CG3C51   CG3C52     HGA2     9     0.000000     0.000000     3
  CG2R62   CG3C51   CG3C54    NG3P2     9     0.000000    24.099840     3
  CG2R62   CG3C51   CG3C54    NG3P2     9   180.000000     6.903600     6
  CG2R62   CG3C51   CG3C54     HGA2     9     0.000000     0.000000     3
  CG2R62   NG2R61    OG301    CG331     9     0.000000     0.041840     1
  CG2R62   NG2R61    OG301    CG331     9   180.000000     1.255200     2
  CG2R62   NG2R61    OG301    CG331     9   180.000000     0.836800     3
  CG2R62   NG2R61    OG301    CG331     9   180.000000     1.338880     4
  CG2R62   NG2R61    OG311     HGP1     9     0.000000    10.418160     1
  CG2R62   NG2R61    OG311     HGP1     9   180.000000     0.502080     2
  CG2R62   NG2R61   OG3R60    CG311     9   180.000000     1.882800     1
  CG2R62   NG2R61   OG3R60    CG311     9   180.000000     2.008320     2
  CG2R62   NG2R61   OG3R60    CG311     9   180.000000     2.133840     3
  CG2R62   NG2R61   OG3R60    CG311     9     0.000000     6.778080     4
  CG2R62   NG2R61     CN7B     CN7B     9   180.000000     0.000000     3
  CG2R62   NG2R61     CN7B     ON6B     9     0.000000     4.184000     1
  CG2R62   NG2R61     CN7B      HN7     9     0.000000     0.815880     3
  CG2R62   NG2R61     CN7B      CN8     9   180.000000     0.000000     3
  CG2R62   NG2R61     CN7B      ON6     9     0.000000     4.184000     1
  CG2R62   NG2R62   NG2R62   CG2R63     9   180.000000     2.092000     2
  CG2R62   NG2R62   NG2R62   CG2RC0     9   180.000000     5.020800     2
  CG2R62   NG2R62   NG2R67   CG2R63     9     0.000000     4.476880     2
  CG2R62   NG2R62   NG2R67   CG2R67     9   180.000000    18.869840     2
  CG2R62   NG2R62   NG2RC0   CG2R53     9   180.000000    11.129440     2
  CG2R62   NG2R62   NG2RC0   CG2RC0     9     0.000000     1.004160     2
  CG2R62    NG3N1    NG3N1     HGP1     9   180.000000     6.694400     2
  CG2R62     CN7B     CN7B    OG301     9     0.000000     0.000000     3
  CG2R62     CN7B     CN7B      CN7     9     0.000000     0.000000     3
  CG2R62     CN7B     CN7B      ON5     9     0.000000     0.000000     3
  CG2R62     CN7B     CN7B      HN7     9   180.000000     0.000000     3
  CG2R62     CN7B     ON6B      CN7     9     0.000000     0.000000     3
  CG2R62     CN7B      CN8      CN7     9     0.000000     0.000000     3
  CG2R62     CN7B      CN8      HN8     9     0.000000     0.000000     3
  CG2R62     CN7B      ON6      CN7     9     0.000000     0.000000     3
  CG2R64   CG2DC1   CG2DC1    CG321     9   180.000000     2.343040     1
  CG2R64   CG2DC1   CG2DC1    CG321     9   180.000000    29.162480     2
  CG2R64   CG2DC1   CG2DC1     HGA4     9   180.000000    21.756800     2
  CG2R64   CG2DC1    CG321    CG321     9     0.000000     0.125520     2
  CG2R64   CG2DC1    CG321    CG321     9   180.000000     3.347200     3
  CG2R64   CG2DC1    CG321     HGA2     9   180.000000     0.000000     3
  CG2R64   CG2DC2   CG2DC2    CG321     9   180.000000     2.343040     1
  CG2R64   CG2DC2   CG2DC2    CG321     9   180.000000    29.162480     2
  CG2R64   CG2DC2   CG2DC2     HGA4     9   180.000000    21.756800     2
  CG2R64   CG2DC2    CG321    CG321     9     0.000000     0.125520     2
  CG2R64   CG2DC2    CG321    CG321     9   180.000000     3.347200     3
  CG2R64   CG2DC2    CG321     HGA2     9   180.000000     0.000000     3
  CG2R64    CG2O1    NG2S2     HGP1     9   180.000000    10.460000     2
  CG2R64    CG2O2    OG311     HGP1     9   180.000000     4.058480     1
  CG2R64    CG2O2    OG311     HGP1     9   180.000000    11.296800     2
  CG2R64    CG2O2    OG311     HGP1     9   180.000000     0.209200     3
  CG2R64    CG2O2    OG311     HGP1     9   180.000000     1.046000     6
  CG2R64   CG2R51   CG2R51    HGR51     9     0.000000     0.753120     2
  CG2R64   CG2R51   OG2R50   CG2R51     9     0.000000     0.292880     2
  CG2R64   CG2R53   NG2R50   CG2R53     9   180.000000    16.736000     2
  CG2R64   CG2R53   NG2R50   NG2R51     9     0.000000     0.000000     2
  CG2R64   CG2R61   CG2R61   CG2R66     9   180.000000    12.970400     2
  CG2R64   CG2R61   CG2R61    CG331     9   180.000000    12.970400     2
  CG2R64   CG2R61   CG2R61    NG2P1     9   180.000000    12.970400     2
  CG2R64   CG2R61   CG2R61   NG2R61     9   180.000000    25.104000     2
  CG2R64   CG2R61   CG2R61   NG2R62     9   180.000000     5.020800     2
  CG2R64   CG2R61   CG2R61    NG2S3     9   180.000000    20.920000     2
  CG2R64   CG2R61   CG2R61    SG311     9   180.000000    18.828000     2
  CG2R64   CG2R61   CG2R61    HGR61     9   180.000000     4.184000     2
  CG2R64   CG2R61   CG2R61    HGR62     9   180.000000     2.092000     2
  CG2R64   CG2R61   CG2RC0   NG2R50     9   180.000000     6.276000     2
  CG2R64   CG2R61   CG2RC0   NG2RC0     9   180.000000    14.644000     2
  CG2R64   CG2R61    CG301    CG331     9   180.000000     0.962320     2
  CG2R64   CG2R61    CG301    OG311     9   180.000000     5.397360     1
  CG2R64   CG2R61    CG301    OG311     9   180.000000     1.882800     2
  CG2R64   CG2R61    CG301    OG311     9     0.000000     5.732080     4
  CG2R64   CG2R61    CG302     FGA3     9     0.000000     1.255200     2
  CG2R64   CG2R61    CG311    CG321     9   180.000000     0.962320     2
  CG2R64   CG2R61    CG311    CG331     9   180.000000     0.962320     2
  CG2R64   CG2R61    CG311     HGA1     9   180.000000     0.418400     6
  CG2R64   CG2R61    CG321    CG321     9   180.000000     0.962320     2
  CG2R64   CG2R61    CG321    OG311     9     0.000000     0.000000     2
  CG2R64   CG2R61    CG321     HGA2     9     0.000000     0.000000     6
  CG2R64   CG2R61    CG331     HGA3     9     0.000000     0.000000     6
  CG2R64   CG2R61    NG2O1    OG2N1     9   180.000000     3.765600     2
  CG2R64   CG2R61   NG2R60   CG2R61     9   180.000000     9.204800     2
  CG2R64   CG2R61   NG2R60   CG2R67     9   180.000000     9.204800     2
  CG2R64   CG2R61   NG2R60     HGP1     9   180.000000     6.401520     2
  CG2R64   CG2R61    NG2S3     HGP4     9   180.000000     5.648400     2
  CG2R64   CG2R61    NG301    CG331     9   180.000000     4.016640     2
  CG2R64   CG2R61    NG301    CG331     9     0.000000     0.418400     4
  CG2R64   CG2R61    NG301    CG331     9   180.000000     0.167360     6
  CG2R64   CG2R61    NG311   CG2R61     9     0.000000     1.840960     2
  CG2R64   CG2R61    NG311   HGPAM1     9   180.000000     1.338880     2
  CG2R64   CG2R61    OG301   CG2R61     9   180.000000     5.020800     2
  CG2R64   CG2R61    OG311     HGP1     9   180.000000     4.142160     2
  CG2R64   CG2R61    SG311   CG2R61     9     0.000000     7.322000     2
  CG2R64   CG2R62   CG2R62   NG2R61     9   180.000000    25.104000     2
  CG2R64   CG2R62   CG2R62    OG312     9     0.000000     0.000000     2
  CG2R64   CG2R62   CG2R62    HGR62     9   180.000000    16.736000     2
  CG2R64   CG2R62   CG2R63   NG2R61     9   180.000000     5.857600     2
  CG2R64   CG2R62   CG2R63   NG2R62     9   180.000000     3.347200     2
  CG2R64   CG2R62   CG2R63    OG2D4     9   180.000000     3.598240     2
  CG2R64   CG2R62   CG2R64   NG2R61     9   180.000000     1.046000     2
  CG2R64   CG2R62   CG2R64   NG2R62     9   180.000000     4.267680     2
  CG2R64   CG2R62   CG2R64    NG301     9   180.000000    22.509920     2
  CG2R64   CG2R62    CG321    OG311     9   180.000000     4.184000     1
  CG2R64   CG2R62    CG321    OG311     9     0.000000     4.184000     2
  CG2R64   CG2R62    CG321     HGA2     9     0.000000     3.389040     3
  CG2R64   CG2R62    CG331     HGA3     9     0.000000     1.924640     3
  CG2R64   CG2R62   NG2R60   CG2R61     9   180.000000     9.204800     2
  CG2R64   CG2R62   NG2R61   CG2R63     9   180.000000     2.510400     2
  CG2R64   CG2R62   NG2R61     HGP1     9   180.000000     4.184000     2
  CG2R64   CG2R62    NG311   CG2R61     9   180.000000     0.125520     2
  CG2R64   CG2R62    NG311    CG311     9   180.000000     5.020800     2
  CG2R64   CG2R62    NG311    CG311     9     0.000000     1.255200     4
  CG2R64   CG2R62    NG311   HGPAM1     9   180.000000     4.184000     2
  CG2R64   CG2R62    SG3O2    NG321     9     0.000000     1.464400     2
  CG2R64   CG2R62    SG3O2    OG2P1     9     0.000000     0.000000     6
  CG2R64   CG2R63   NG2R61   CG2R61     9   180.000000     6.276000     2
  CG2R64   CG2R63   NG2R61   CG2R62     9   180.000000     6.276000     2
  CG2R64   CG2R63   NG2R61    CG331     9   180.000000    23.012000     2
  CG2R64   CG2R63   NG2R61     HGP1     9   180.000000    20.083200     2
  CG2R64   CG2R63   OG3R60   CG2R62     9     0.000000     2.510400     2
  CG2R64   CG2R64   NG2R60   CG2R61     9   180.000000     5.020800     2
  CG2R64   CG2R64   NG2R61   CG2R61     9   180.000000     1.087840     2
  CG2R64   CG2R64   NG2R61     HGP1     9   180.000000     0.041840     2
  CG2R64   CG2R64   NG2R62   CG2RC0     9   180.000000     8.368000     2
  CG2R64   CG2R64    NG2S3     HGP4     9   180.000000     8.368000     2
  CG2R64   CG2R64   NG3C51   CG3C52     9   180.000000     2.175680     1
  CG2R64   CG2R64   NG3C51   CG3C52     9     0.000000     2.552240     2
  CG2R64   CG2R64   NG3C51   CG3C52     9     0.000000     0.711280     3
  CG2R64   CG2RC0   CG2RC0   NG2R51     9   180.000000    29.288000     2
  CG2R64   CG2RC0   CG2RC0   NG2R62     9   180.000000     8.368000     2
  CG2R64   CG2RC0   CG2RC0   OG3C51     9   180.000000    16.736000     2
  CG2R64   CG2RC0   CG3C52   CG3C51     9   180.000000    12.552000     2
  CG2R64   CG2RC0   CG3C52     HGA2     9   180.000000     2.092000     3
  CG2R64   CG2RC0   NG2R50   CG2R53     9   180.000000     8.368000     2
  CG2R64   CG2RC0   NG2R51    CG331     9     0.000000     4.142160     2
  CG2R64   CG2RC0   NG2R51   NG2R50     9   180.000000    12.552000     2
  CG2R64   CG2RC0   NG2R52   CG2R61     9     0.000000     6.861760     2
  CG2R64   CG2RC0   NG2R52   CG3C54     9   180.000000    15.271600     2
  CG2R64   CG2RC0   NG2R52     HGP2     9   180.000000     2.008320     2
  CG2R64   CG2RC0   NG2R52     HGP2     9     0.000000     0.711280     4
  CG2R64   CG2RC0   NG2RC0   CG2R51     9   180.000000     4.184000     2
  CG2R64   CG2RC0   NG2RC0   CG2R61     9   180.000000     3.347200     2
  CG2R64    CG301    CG331     HGA3     9     0.000000     0.167360     3
  CG2R64    CG301    NG321   HGPAM2     9     0.000000     1.297040     3
  CG2R64    CG311    CG331     HGA3     9     0.000000     0.167360     3
  CG2R64    CG311    OG311     HGP1     9     0.000000     4.518720     1
  CG2R64    CG311    OG311     HGP1     9     0.000000     2.259360     2
  CG2R64    CG311    OG311     HGP1     9     0.000000     3.221680     3
  CG2R64    CG314    CG321    CG321     9     0.000000     0.167360     3
  CG2R64    CG314    CG321     HGA2     9     0.000000     0.000000     3
  CG2R64    CG314    NG3P2    CG324     9   180.000000     2.719600     1
  CG2R64    CG314    NG3P2    CG324     9     0.000000     3.263520     3
  CG2R64    CG314    NG3P2     HGP2     9     0.000000     0.418400     3
  CG2R64    CG321    NG311    CG321     9   180.000000     3.347200     1
  CG2R64    CG321    NG311    CG321     9     0.000000     2.092000     2
  CG2R64    CG321    NG311    CG321     9     0.000000     2.928800     3
  CG2R64    CG321    NG311   HGPAM1     9     0.000000     1.255200     3
  CG2R64    CG321    NG321   HGPAM2     9     0.000000     1.255200     3
  CG2R64    CG324    NG3P3     HGP2     9     0.000000     0.167360     3
  CG2R64   CG3C31   CG3C31   CG3C31     9   180.000000    18.367760     3
  CG2R64   CG3C31   CG3C31   CG3C31     9     0.000000     3.012480     6
  CG2R64   CG3C31   CG3C31     HGA2     9   180.000000     0.000000     5
  CG2R64   CG3C41   CG3C41    NG311     9     0.000000    10.376320     2
  CG2R64   CG3C41   CG3C41    NG311     9   180.000000    10.920240     3
  CG2R64   CG3C41   CG3C41     HGA2     9   180.000000     0.000000     3
  CG2R64   CG3C50   CG3C52   CG3C52     9     0.000000     7.656720     3
  CG2R64   CG3C50   CG3C52   CG3C52     9     0.000000     5.732080     4
  CG2R64   CG3C50   CG3C52     HGA2     9     0.000000     0.000000     3
  CG2R64   CG3C50   NG3C51   CG3C52     9   180.000000     5.146320     3
  CG2R64   CG3C50   NG3C51   CG3C52     9     0.000000     7.363840     4
  CG2R64   CG3C50   NG3C51     HGP1     9   180.000000     9.832400     1
  CG2R64   CG3C50   NG3C51     HGP1     9   180.000000     7.824080     3
  CG2R64   CG3C50   NG3C51     HGP1     9   180.000000     0.041840     6
  CG2R64   CG3C51   CG3C52   CG3C52     9     0.000000     0.627600     1
  CG2R64   CG3C51   CG3C52   CG3C52     9     0.000000     1.464400     2
  CG2R64   CG3C51   CG3C52   CG3C52     9     0.000000     0.125520     3
  CG2R64   CG3C51   CG3C52     HGA2     9     0.000000     0.000000     1
  CG2R64   CG3C51   CG3C52     HGA2     9     0.000000     0.000000     2
  CG2R64   CG3C51   CG3C52     HGA2     9     0.000000     0.000000     3
  CG2R64   CG3C51    SG311   CG3C52     9     0.000000     0.627600     1
  CG2R64   CG3C51    SG311   CG3C52     9     0.000000     2.468560     2
  CG2R64   CG3C51    SG311   CG3C52     9   180.000000     0.669440     3
  CG2R64   CG3C53    NG3P2   CG3C54     9     0.000000     1.213360     3
  CG2R64   CG3C53    NG3P2     HGP2     9     0.000000     2.468560     3
  CG2R64    NG2D1    NG3N1     HGP1     9     0.000000     2.092000     3
  CG2R64   NG2R61    NG2S3     HGP4     9     0.000000     7.698560     1
  CG2R64   NG2R61    NG2S3     HGP4     9     0.000000     1.589920     2
  CG2R64   NG2R61    NG2S3     HGP4     9     0.000000     1.255200     3
  CG2R64   NG2R61    NG2S3     HGP4     9   180.000000     0.000000     6
  CG2R64   NG2R61     CN7B     ON6B     9   180.000000     3.347200     1
  CG2R64   NG2R61     CN7B     ON6B     9     0.000000     2.928800     3
  CG2R64   NG2R61     CN7B      HN7     9     0.000000     0.000000     3
  CG2R64   NG2R61     CN7B     CN7B     9   180.000000     0.836800     3
  CG2R64    NG2S0    NG2S1    CG2O6     9     0.000000     0.083680     1
  CG2R64    NG2S0    NG2S1    CG2O6     9   180.000000     0.543920     2
  CG2R64    NG2S0    NG2S1     HGP1     9     0.000000     1.046000     2
  CG2R64    NG2S0    NG2S1     HGP1     9   180.000000     0.543920     3
  CG2R64    NG301    SG3O2    CG321     9     0.000000     9.204800     2
  CG2R64    NG301    SG3O2    CG321     9     0.000000     0.836800     3
  CG2R64    NG301    SG3O2    OG2P1     9     0.000000     0.836800     3
  CG2R64    NG311    OG311     HGP1     9     0.000000     3.849280     1
  CG2R64    NG311    OG311     HGP1     9     0.000000     3.598240     2
  CG2R64    NG311    OG311     HGP1     9     0.000000     7.656720     3
  CG2R64    NG311    OG311     HGP1     9     0.000000     0.000000     6
  CG2R64    NG3N1    NG3N1     HGP1     9   180.000000     6.694400     2
  CG2R64    NG2P1     CN7B     CN7B     9   180.000000     0.000000     1
  CG2R64    NG2P1     CN7B     ON6B     9     0.000000     5.439200     1
  CG2R64    NG2P1     CN7B     ON6B     9     0.000000     0.000000     2
  CG2R64    NG2P1     CN7B      HN7     9     0.000000     0.000000     3
   CG2N2    CG2N2    NG2D1    CG321     9   180.000000     0.627600     1
   CG2N2    CG2N2    NG2D1    CG321     9     0.000000     0.000000     2
   CG2N2    CG2N2    NG2D1    CG321     9     0.000000     3.891120     3
   CG2N2    CG2N2    NG2P1    CG324     9   180.000000    13.890880     2
   CG2N2    CG2N2    NG2P1     HGP2     9   180.000000    11.254960     2
   CG2N2    CG2N2    NG311    CG321     9   180.000000    21.045520     2
   CG2N2    CG2N2    NG311   HGPAM1     9   180.000000     5.188160     2
   CG2N2    CG2N2    NG311   HGPAM1     9   180.000000     0.292880     4
   CG2N2   CG2R51   CG2R51   CG2R52     9     0.000000     2.426720     2
   CG2N2   CG2R51   CG2R51   CG2RC0     9   180.000000     8.577200     2
   CG2N2   CG2R51   CG2R51    CG331     9     0.000000     0.000000     2
   CG2N2   CG2R51   CG2R51   CG3C52     9     0.000000     2.092000     2
   CG2N2   CG2R51   CG2R51   NG2R50     9     0.000000     0.000000     2
   CG2N2   CG2R51   CG2R51   NG2R51     9   180.000000    10.041600     2
   CG2N2   CG2R51   CG2R51    HGR52     9   180.000000     4.602400     2
   CG2N2   CG2R51   CG2RC0   CG2R61     9   180.000000     0.000000     2
   CG2N2   CG2R51   CG2RC0   CG2R63     9   180.000000     0.000000     2
   CG2N2   CG2R51   CG2RC0   CG2RC0     9   180.000000    10.041600     2
   CG2N2   CG2R51   NG2R51    CG331     9     0.000000     4.309520     2
   CG2N2   CG2R51   NG2R51   NG2R50     9   180.000000     2.928800     2
   CG2N2   CG2R51   NG2RC0   CG2R61     9     0.000000     0.000000     2
   CG2N2   CG2R51   NG2RC0   CG2RC0     9   180.000000     8.577200     2
   CG2N2   CG2R51   OG2R50   CG2RC0     9   180.000000     2.635920     2
   CG2N2   CG2R53   NG2R50   CG2RC0     9   180.000000    15.313440     2
   CG2N2   CG2R53   NG2R51   CG2RC0     9     0.000000     0.000000     2
   CG2N2   CG2R53   NG2R51     HGP1     9   180.000000     0.669440     2
   CG2N2   CG2R61   CG2R61   CG2R61     9   180.000000    12.970400     2
   CG2N2   CG2R61   CG2R61    CG302     9   180.000000    13.765360     2
   CG2N2   CG2R61   CG2R61    CG311     9   180.000000     0.334720     2
   CG2N2   CG2R61   CG2R61    CG321     9     0.000000     0.041840     2
   CG2N2   CG2R61   CG2R61    CG324     9   180.000000     1.087840     2
   CG2N2   CG2R61   CG2R61    CG331     9   180.000000     6.443360     2
   CG2N2   CG2R61   CG2R61    NG2O1     9   180.000000    17.447280     2
   CG2N2   CG2R61   CG2R61   NG2R60     9   180.000000    20.920000     2
   CG2N2   CG2R61   CG2R61    OG301     9     0.000000     0.502080     2
   CG2N2   CG2R61   CG2R61    SG311     9   180.000000     4.351360     2
   CG2N2   CG2R61   CG2R61    HGR61     9   180.000000    10.041600     2
   CG2N2   CG2R61   CG2R64   NG2R60     9   180.000000    13.305120     2
   CG2N2   CG2R61   CG2R64    NG301     9     0.000000     1.840960     2
   CG2N2   CG2R61   CG2R66   CG2R61     9   180.000000    12.970400     2
   CG2N2   CG2R61   CG2R66     FGR1     9   180.000000     6.610720     2
   CG2N2   CG2R61   CG2R67   CG2R61     9   180.000000     7.405680     2
   CG2N2   CG2R61   CG2R67   CG2R67     9   180.000000     8.158800     2
   CG2N2   CG2R61   CG2RC0   CG2R51     9     0.000000     0.292880     2
   CG2N2   CG2R61   CG2RC0   CG2R67     9   180.000000    13.430640     2
   CG2N2   CG2R61   CG2RC0   CG2RC0     9   180.000000     3.347200     2
   CG2N2   CG2R61   CG2RC0   CG3C52     9     0.000000     0.209200     2
   CG2N2   CG2R61   CG2RC0   NG2R50     9   180.000000     7.405680     2
   CG2N2   CG2R61   CG2RC0   NG2RC0     9   180.000000     1.673600     2
   CG2N2   CG2R61   NG2R60   CG2R61     9   180.000000    28.451200     2
   CG2N2   CG2R61   NG2R62   CG2R64     9   180.000000    13.932720     2
   CG2N2   CG2R62   CG2R62   CG2R62     9     0.000000     0.083680     2
   CG2N2   CG2R62   CG2R62    HGR62     9   180.000000    17.907520     2
   CG2N2   CG2R62   CG2R63    OG2D4     9   180.000000    17.154400     2
   CG2N2   CG2R62   CG2R63   OG3R60     9   180.000000     9.288480     2
   CG2N2    CG301    CG331     HGA3     9     0.000000     0.836800     3
   CG2N2    CG311   OG3C61    CG321     9   180.000000     2.175680     1
   CG2N2    CG311   OG3C61    CG321     9     0.000000     7.112800     2
   CG2N2    CG311   OG3C61    CG321     9     0.000000     1.213360     3
   CG2N2    NG2D1   NG2R61   CG2R62     9   180.000000     1.255200     1
   CG2N2    NG2D1   NG2R61   CG2R62     9   180.000000    36.233440     2
   CG2N2    NG2D1    NG3N1   CG3RC1     9     0.000000     3.891120     1
   CG2N2    NG2D1    NG3N1   CG3RC1     9   180.000000     6.317840     2
   CG2N2    NG2D1    NG3N1   CG3RC1     9   180.000000     0.920480     3
   CG2N2    NG2D1    NG3N1   CG3RC1     9     0.000000     3.096160     4
   CG2N2    NG2D1    NG3N1   CG3RC1     9   180.000000     1.548080     6
   CG2N2    NG2D1    NG3N1     HGP1     9   180.000000     1.882800     3
   CG2N2    NG2D1    SG3O2   CG2R61     9     0.000000     1.297040     1
   CG2N2    NG2D1    SG3O2   CG2R61     9   180.000000     0.251040     2
   CG2N2    NG2D1    SG3O2   CG2R61     9   180.000000     2.803280     3
   CG2N2    NG2D1    SG3O2   CG2R61     9     0.000000     0.376560     4
   CG2N2    NG2D1    SG3O2   CG2R61     9     0.000000     1.297040     6
   CG2N2    NG2D1    SG3O2    OG2P1     9   180.000000     2.050160     1
   CG2N2    NG2D1    SG3O2    OG2P1     9   180.000000     0.543920     2
   CG2N2    NG2D1    SG3O2    OG2P1     9     0.000000     0.418400     3
   CG2N2    NG2D1    SG3O2    OG2P1     9     0.000000     0.669440     4
   CG2N2    NG2D1    SG3O2    OG2P1     9   180.000000     2.217520     6
   CG2N2    NG2D1    SG3O3    CG2O5     9     0.000000     2.677760     1
   CG2N2    NG2D1    SG3O3    CG2O5     9     0.000000     0.000000     2
   CG2N2    NG2D1    SG3O3    CG2O5     9     0.000000     1.338880     3
   CG2N2    NG2D1    SG3O3    CG2O5     9   180.000000     0.000000     4
   CG2N2    NG2D1    SG3O3    CG2O5     9   180.000000     0.167360     6
   CG2N2    NG2D1    SG3O3    CG331     9   180.000000     0.962320     1
   CG2N2    NG2D1    SG3O3    CG331     9   180.000000    26.861280     2
   CG2N2    NG2D1    SG3O3    CG331     9   180.000000     2.050160     3
   CG2N2    NG2D1    SG3O3    CG331     9   180.000000     4.895280     4
   CG2N2    NG2D1    SG3O3    CG331     9     0.000000     3.514560     6
   CG2N2    NG2D1    SG3O3    OG2P1     9     0.000000     2.050160     1
   CG2N2    NG2D1    SG3O3    OG2P1     9   180.000000     3.765600     2
   CG2N2    NG2D1    SG3O3    OG2P1     9     0.000000     3.681920     3
   CG2N2    NG2D1    SG3O3    OG2P1     9     0.000000     1.757280     4
   CG2N2    NG2D1    SG3O3    OG2P1     9   180.000000     3.849280     6
   CG2N2    NG2P1    OG311     HGP1     9   180.000000     0.502080     1
   CG2N2    NG2P1    OG311     HGP1     9     0.000000     0.502080     2
   CG2N2    NG2P1    OG311     HGP1     9     0.000000     0.962320     3
   CG2N2    NG2P1    SG311   CG2R51     9     0.000000     0.292880     1
   CG2N2    NG2P1    SG311   CG2R51     9   180.000000    10.878400     2
   CG2N2    NG2P1    SG311   CG2R51     9     0.000000     6.485200     3
   CG2N2    NG2P1    SG311   CG2R51     9   180.000000     1.380720     4
   CG2N2    NG2P1    SG311   CG2R51     9     0.000000     0.627600     6
   NG3N1    CG2N2    NG2D1     HGP1     9   180.000000    21.756800     2
   NG3N1    CG2N2    SG311    CG321     9   180.000000     2.677760     1
   NG3N1    CG2N2    SG311    CG321     9   180.000000     4.686080     2
   NG3N1    CG2N2    SG311    CG321     9     0.000000     1.380720     4
   NG3N1   CG2R53   CG2R53    NG3N1     9     0.000000     3.472720     2
   NG3N1   CG2R53   NG2R50   OG2R50     9     0.000000     2.175680     2
   NG3N1   CG2R61   CG2R61    OG311     9   180.000000    10.794720     2
   NG3N1   CG2R61   CG2R61    HGR61     9   180.000000    10.041600     2
   NG3N1   CG2R61   CG2R61    HGR62     9   180.000000    10.041600     2
   NG3N1   CG2R62   NG2R61   CG2R62     9     0.000000     0.125520     2
   NG3N1   CG2R62   NG2R61     HGP2     9   180.000000    14.685840     2
   NG3N1   CG2R64   CG2R66   CG2R61     9   180.000000    12.970400     2
   NG3N1   CG2R64   CG2R66     FGR1     9   180.000000     8.326160     2
   NG3N1   CG2R64   NG2R60   CG2R61     9   180.000000    12.970400     2
   NG3N1   CG2R64   NG2R62   NG2R62     9   180.000000    21.463920     2
   NG3N1   CG2R71    CG331     HGA3     9     0.000000     1.171520     3
   NG3N1   CG2R71    NG2D1   CG2R53     9   180.000000     5.439200     1
   NG3N1   CG2R71    NG2D1   CG2R53     9   180.000000    14.978720     2
   NG3N1   CG2R71    NG2D1   CG2R53     9     0.000000     1.422560     3
   NG3N1   CG2R71    NG2D1   CG2R53     9     0.000000     1.046000     4
   NG3N1   CG2R71    NG2D1   CG2R53     9     0.000000     0.209200     5
   NG3N1   CG2R71    NG2D1   CG2R53     9     0.000000     0.543920     6
   NG3N1    CG311    CG331     HGA3     9     0.000000     0.669440     3
   NG3N1    CG311    SG311    CG311     9     0.000000     3.221680     1
   NG3N1    CG311    SG311    CG311     9     0.000000     1.673600     2
   NG3N1    CG311    SG311    CG311     9     0.000000     2.343040     3
   NG3N1    CG311    SG311    CG311     9     0.000000     0.167360     4
   NG3N1   CG3C51   CG3C52   CG3C51     9   180.000000     1.255200     3
   NG3N1   CG3C51   CG3C52   CG3C52     9     0.000000     0.000000     2
   NG3N1   CG3C51   CG3C52   CG3C52     9     0.000000     0.334720     3
   NG3N1   CG3C51   CG3C52     HGA2     9   180.000000     0.627600     3
   NG3N1   CG3RC1   CG3RC1    SG311     9   180.000000     1.171520     2
   NG3N1   CG3RC1   CG3RC1    SG311     9     0.000000     1.087840     3
   NG3N1   CG3RC1   CG3RC1     HGA1     9     0.000000     0.000000     3
   NG3N1   CG3RC1   NG2R53   CG2R53     9   180.000000     6.861760     2
   NG3N1   CG3RC1   NG2R53   CG2R53     9     0.000000     1.213360     3
   NG3N1   CG3RC1   NG2R53    CG331     9     0.000000     0.627600     2
   NG3N1   CG3RC1   NG2R53    CG331     9     0.000000     6.192320     3
  NG2R52    CG2N2    NG2P1    CG324     9   180.000000     9.414000     2
  NG2R52    CG2N2    NG2P1     HGP2     9   180.000000    14.644000     2
  NG2R52    CG2O1    CG331     HGA3     9     0.000000     1.046000     3
  NG2R52    CG2O6    NG2S1    CG321     9     0.000000     0.000000     1
  NG2R52    CG2O6    NG2S1    CG321     9   180.000000     9.999760     2
  NG2R52    CG2O6    NG2S1     HGP1     9   180.000000    16.150240     2
  NG2R52   CG2R51   CG2R51   NG2R52     9   180.000000    50.208000     2
  NG2R52   CG2R51   CG2R51   NG2RC0     9   180.000000    23.179360     2
  NG2R52   CG2R51   CG2R51   SG2R50     9     0.000000     0.125520     2
  NG2R52   CG2R51   CG2R51    HGR52     9   180.000000    10.460000     2
  NG2R52   CG2R51   CG2R57   CG2R57     9   180.000000     9.204800     2
  NG2R52   CG2R51   CG2R57   NG2R52     9   180.000000    24.392720     2
  NG2R52   CG2R51   CG2R61   CG2R61     9   180.000000     3.932960     2
  NG2R52   CG2R51   CG2R61   CG2R61     9   180.000000     1.924640     4
  NG2R52   CG2R51   CG2R61   CG2R61     9   180.000000     0.251040     6
  NG2R52   CG2R51   CG2RC0   CG2R61     9   180.000000     3.891120     2
  NG2R52   CG2R51   CG2RC0   CG2RC0     9   180.000000    24.727440     2
  NG2R52   CG2R51   CG2RC0   NG2R52     9   180.000000    12.091760     2
  NG2R52   CG2R51    CG301    CG321     9     0.000000     0.585760     3
  NG2R52   CG2R51    CG311    CG2O3     9   180.000000     0.000000     1
  NG2R52   CG2R51    CG311    CG2O3     9   180.000000     0.000000     2
  NG2R52   CG2R51    CG311    CG321     9     0.000000     0.794960     3
  NG2R52   CG2R51    CG311    CG324     9     0.000000     0.794960     3
  NG2R52   CG2R51    CG311     HGA1     9     0.000000     0.794960     3
  NG2R52   CG2R51    CG321    CG311     9     0.000000     0.794960     3
  NG2R52   CG2R51    CG321    CG314     9     0.000000     0.794960     3
  NG2R52   CG2R51    CG321    CG321     9     0.000000     0.794960     3
  NG2R52   CG2R51    CG321    CG331     9     0.000000     0.794960     3
  NG2R52   CG2R51    CG321     HGA2     9     0.000000     0.794960     3
  NG2R52   CG2R51    CG324    NG3P1     9     0.000000     0.167360     2
  NG2R52   CG2R51    CG324    NG3P1     9     0.000000     5.606560     3
  NG2R52   CG2R51    CG324     HGA2     9     0.000000     0.794960     3
  NG2R52   CG2R51    CG331     HGA3     9     0.000000     0.794960     3
  NG2R52   CG2R51   SG2R50   CG2RC0     9   180.000000    15.480800     2
  NG2R52   CG2R53   CG2R61   CG2R61     9   180.000000     1.297040     2
  NG2R52   CG2R53   CG2R61   CG2R61     9     0.000000     0.041840     4
  NG2R52   CG2R53   CG2R61   NG2R60     9   180.000000     9.497680     2
  NG2R52   CG2R53   CG2R61   NG2R60     9     0.000000     0.669440     4
  NG2R52   CG2R53    CG301    CG321     9   180.000000     1.297040     2
  NG2R52   CG2R53    CG301    CG321     9   180.000000     1.213360     3
  NG2R52   CG2R53    CG301    CG321     9     0.000000     0.543920     6
  NG2R52   CG2R53    CG301    CG331     9     0.000000     0.083680     2
  NG2R52   CG2R53    CG301    CG331     9     0.000000     1.631760     3
  NG2R52   CG2R53    CG301    CG331     9     0.000000     0.125520     6
  NG2R52   CG2R53    CG301    NG321     9   180.000000     7.865920     2
  NG2R52   CG2R53    CG301    NG321     9   180.000000     0.376560     3
  NG2R52   CG2R53    CG301    NG321     9   180.000000     0.962320     4
  NG2R52   CG2R53    CG311    CG321     9   180.000000     0.125520     2
  NG2R52   CG2R53    CG311    CG321     9     0.000000     0.794960     3
  NG2R52   CG2R53    CG311    CG324     9     0.000000     0.543920     2
  NG2R52   CG2R53    CG311    CG324     9     0.000000     0.794960     3
  NG2R52   CG2R53    CG311    CG324     9   180.000000     0.962320     4
  NG2R52   CG2R53    CG311     HGA1     9     0.000000     1.422560     3
  NG2R52   CG2R53    CG321    CG311     9   180.000000     0.125520     2
  NG2R52   CG2R53    CG321    CG311     9     0.000000     0.794960     3
  NG2R52   CG2R53    CG321    CG321     9   180.000000     0.123428     2
  NG2R52   CG2R53    CG321    CG321     9     0.000000     0.794960     3
  NG2R52   CG2R53    CG321    CG331     9   180.000000     0.123428     2
  NG2R52   CG2R53    CG321    CG331     9     0.000000     0.794960     3
  NG2R52   CG2R53    CG321    NG321     9   180.000000     0.251040     2
  NG2R52   CG2R53    CG321    NG321     9   180.000000     0.000000     3
  NG2R52   CG2R53    CG321    NG321     9   180.000000     2.384880     6
  NG2R52   CG2R53    CG321    OG311     9   180.000000     0.878640     2
  NG2R52   CG2R53    CG321    OG311     9     0.000000     6.066800     3
  NG2R52   CG2R53    CG321    OG311     9   180.000000     1.297040     6
  NG2R52   CG2R53    CG321     HGA2     9     0.000000     1.414610     3
  NG2R52   CG2R53    CG331     HGA3     9     0.000000     1.414610     3
  NG2R52   CG2R53   CG3C31   CG3C31     9     0.000000     0.543920     2
  NG2R52   CG2R53   CG3C31   CG3C31     9     0.000000     0.209200     3
  NG2R52   CG2R53   CG3C31   CG3C31     9     0.000000     0.083680     6
  NG2R52   CG2R53   CG3C31     HGA1     9     0.000000     0.000000     3
  NG2R52   CG2R53   CG3C41   CG3C41     9     0.000000     1.464400     3
  NG2R52   CG2R53   CG3C41   CG3C41     9   180.000000     0.627600     6
  NG2R52   CG2R53   CG3C41     HGA1     9     0.000000     0.000000     3
  NG2R52   CG2R53   CG3C52   CG3C52     9     0.000000     0.000000     2
  NG2R52   CG2R53   CG3C52   CG3C52     9     0.000000     4.267680     3
  NG2R52   CG2R53   CG3C52     HGA2     9   180.000000     0.000000     3
  NG2R52   CG2R53    NG2P1   CG2D1O     9   180.000000    15.229760     2
  NG2R52   CG2R53    NG2P1   CG2D2O     9   180.000000    15.229760     2
  NG2R52   CG2R53    NG2P1     HGP2     9   180.000000    12.719360     2
  NG2R52   CG2R53   NG2R50   CG2R52     9   180.000000    21.422080     2
  NG2R52   CG2R53   NG2R52    CG2O1     9     0.000000     0.125520     2
  NG2R52   CG2R53   NG2R52    CG2O6     9   180.000000    12.468320     2
  NG2R52   CG2R53   NG2R52   CG2R51     9   180.000000    50.208000     2
  NG2R52   CG2R53   NG2R52   CG2R57     9   180.000000    50.208000     2
  NG2R52   CG2R53   NG2R52   CG2R61     9     0.000000     0.209200     2
  NG2R52   CG2R53   NG2R52   CG2R64     9   180.000000     7.991440     2
  NG2R52   CG2R53   NG2R52   CG2RC0     9   180.000000    58.576000     2
  NG2R52   CG2R53   NG2R52    CG314     9   180.000000    15.480800     2
  NG2R52   CG2R53   NG2R52    CG324     9   180.000000    15.480800     2
  NG2R52   CG2R53   NG2R52    CG334     9   180.000000    15.480800     2
  NG2R52   CG2R53   NG2R52   CG3C31     9   180.000000    22.551760     2
  NG2R52   CG2R53   NG2R52   CG3C50     9   180.000000    37.112080     2
  NG2R52   CG2R53   NG2R52   CG3C53     9   180.000000    32.216800     2
  NG2R52   CG2R53   NG2R52   CG3C54     9   180.000000    32.216800     2
  NG2R52   CG2R53   NG2R52   CG3RC1     9   180.000000    49.915120     2
  NG2R52   CG2R53   NG2R52   NG2R50     9   180.000000    34.769040     2
  NG2R52   CG2R53   NG2R52   NG2R51     9     0.000000     0.000000     2
  NG2R52   CG2R53   NG2R52    NG3N1     9     0.000000     1.004160     2
  NG2R52   CG2R53   NG2R52    OG311     9   180.000000    10.083440     2
  NG2R52   CG2R53   NG2R52    OG312     9   180.000000    13.765360     2
  NG2R52   CG2R53   NG2R52     HGP2     9   180.000000     5.857600     2
  NG2R52   CG2R53   NG2R52     CN7B     9   180.000000    32.216800     2
  NG2R52   CG2R53   SG2R50   CG2R51     9   180.000000    17.238080     2
  NG2R52   CG2R57   CG2R57   OG2R50     9   180.000000     2.468560     2
  NG2R52   CG2R57   CG2R57   OG2R50     9     0.000000     0.753120     4
  NG2R52   CG2R57   CG2R57   SG2R50     9   180.000000     2.175680     2
  NG2R52   CG2R57   CG2R57   SG2R50     9   180.000000     1.966480     4
  NG2R52   CG2R57   CG2R57   SG2R50     9     0.000000     1.380720     6
  NG2R52   CG2R61   CG2R61   NG2R60     9   180.000000    16.317600     2
  NG2R52   CG2R61   CG2R61    HGR61     9   180.000000    14.225600     2
  NG2R52   CG2R61   CG2R61    HGR62     9   180.000000    14.225600     2
  NG2R52   CG2R61    CG331     HGA3     9   180.000000     0.000000     6
  NG2R52   CG2R62   CG2R62    HGR63     9     0.000000     1.422560     2
  NG2R52   CG2R62   NG2R61   CG2R62     9     0.000000     7.238320     2
  NG2R52   CG2R62   NG2R61     HGP2     9   180.000000     3.221680     2
  NG2R52   CG2R63   NG2R61   CG2R63     9   180.000000     2.510400     2
  NG2R52   CG2R63   NG2R61     HGP1     9   180.000000     0.000000     2
  NG2R52   CG2R64    CG331     HGA3     9   180.000000     0.000000     6
  NG2R52   CG2R64   NG2R62   CG2R61     9   180.000000    12.552000     2
  NG2R52   CG2RC0   CG2RC0   NG2R52     9   180.000000    20.920000     2
  NG2R52   CG2RC0   CG2RC0   NG2R62     9   180.000000    23.012000     2
  NG2R52   CG2RC0   CG2RC0   NG3C51     9     0.000000     0.209200     2
  NG2R52   CG2RC0   NG2R52   CG2R51     9   180.000000    14.183760     2
  NG2R52   CG2RC0   NG2R52   CG2R61     9     0.000000     0.669440     2
  NG2R52   CG2RC0   NG2R52   CG3C53     9     0.000000     2.133840     2
  NG2R52   CG2RC0   NG2R52   CG3C54     9   180.000000    33.220960     2
  NG2R52   CG2RC0   NG2R52     HGP2     9     0.000000     5.271840     2
  NG2R52   CG2RC0   NG2R52     HGP2     9     0.000000     4.811600     4
  NG2R52   CG2RC0   NG2R61   CG2R62     9   180.000000    15.187920     2
  NG2R52   CG2RC0   NG2R61     HGP2     9   180.000000    10.920240     2
  NG2R52   CG2RC0   NG2R62   CG2R64     9   180.000000     8.368000     2
  NG2R52   CG2RC0   NG2RC0   CG2R51     9   180.000000    42.258400     2
  NG2R52   CG2RC0   NG2RC0   CG2R62     9   180.000000     7.363840     2
  NG2R52   CG2RC0   NG2RC0   CG3C54     9   180.000000    21.171040     2
  NG2R52    CG314    CG321    CG321     9     0.000000     0.836800     3
  NG2R52    CG314    CG321     HGA2     9     0.000000     0.836800     3
  NG2R52    CG314    CG331     HGA3     9     0.000000     0.836800     3
  NG2R52    CG324    CG324    NG3P1     9   180.000000     0.041840     3
  NG2R52    CG324    CG324     HGA2     9     0.000000     0.836800     3
  NG2R52   CG3C31   CG3C31     HGA2     9   180.000000     0.000000     5
  NG2R52   CG3C50   CG3C54   NG2R52     9     0.000000     0.292880     2
  NG2R52   CG3C50   CG3C54   NG2R52     9   180.000000     3.556400     3
  NG2R52   CG3C50   CG3C54     HGA2     9     0.000000     0.000000     3
  NG2R52   CG3C53   CG3C54   NG2R52     9     0.000000     0.292880     3
  NG2R52   CG3C53   CG3C54    NG3P2     9     0.000000     0.000000     3
  NG2R52   CG3C53   CG3C54     HGA2     9     0.000000     1.255200     3
  NG2R52   CG3C53   NG3C51   CG2RC0     9   180.000000     5.230000     2
  NG2R52   CG3C53   NG3C51   CG2RC0     9   180.000000     1.171520     6
  NG2R52   CG3C53   NG3C51     HGP1     9   180.000000     5.941280     1
  NG2R52   CG3C53   NG3C51     HGP1     9   180.000000    13.221440     2
  NG2R52   CG3C54   CG3C54   NG2R52     9     0.000000     0.292880     3
  NG2R52   CG3C54   CG3C54   NG2RC0     9     0.000000     0.000000     2
  NG2R52   CG3C54   CG3C54   NG2RC0     9     0.000000     4.309520     3
  NG2R52   CG3C54   CG3C54     HGA2     9     0.000000     1.255200     3
  NG2R52   CG3RC1   CG3RC1   NG2R52     9     0.000000     0.000000     2
  NG2R52   CG3RC1   CG3RC1   NG2R52     9     0.000000     1.338880     3
  NG2R52   CG3RC1   CG3RC1     HGA1     9     0.000000     0.000000     3
  NG2R52   NG2R50   NG2R50   NG2R52     9   180.000000    34.559840     2
  NG2R52     CN7B     CN7B    OG301     9     0.000000     0.000000     3
  NG2R52     CN7B     CN7B      CN7     9     0.000000     0.000000     3
  NG2R52     CN7B     CN7B      ON5     9     0.000000     0.000000     3
  NG2R52     CN7B     CN7B      HN7     9     0.000000     0.000000     3
  NG2R52     CN7B     ON6B      CN7     9     0.000000     0.000000     3
   OG2D1    CG2O1    CG2O1    OG2D1     9     0.000000     0.836800     2
   OG2D1    CG2O1    CG2O1    OG2D1     9   180.000000     1.673600     3
   OG2D1    CG2O1    CG2O1    OG2D1     9     0.000000     0.292880     6
   OG2D1    CG2O1   CG2R51   CG2R51     9   180.000000     4.602400     2
   OG2D1    CG2O1   CG2R51   CG2R51     9     0.000000     1.255200     4
   OG2D1    CG2O1   CG2R51   CG2RC0     9   180.000000     4.602400     2
   OG2D1    CG2O1   CG2R51   CG2RC0     9     0.000000     1.255200     4
   OG2D1    CG2O1   CG2R51   NG2R50     9     0.000000     0.083680     2
   OG2D1    CG2O1   CG2R51   NG2R50     9     0.000000     2.845120     3
   OG2D1    CG2O1   CG2R51   NG2R50     9     0.000000     1.297040     4
   OG2D1    CG2O1   CG2R51   NG2R51     9   180.000000     4.602400     2
   OG2D1    CG2O1   CG2R51   NG2R51     9     0.000000     1.255200     4
   OG2D1    CG2O1   CG2R51   SG2R50     9   180.000000     5.313680     2
   OG2D1    CG2O1   CG2R51   SG2R50     9   180.000000     0.711280     4
   OG2D1    CG2O1   CG2R52   CG2R51     9   180.000000     4.602400     2
   OG2D1    CG2O1   CG2R52   CG2R51     9     0.000000     1.255200     4
   OG2D1    CG2O1   CG2R52   NG2R50     9   180.000000     2.050160     2
   OG2D1    CG2O1   CG2R52   NG2R50     9   180.000000     0.920480     4
   OG2D1    CG2O1   CG2R61   CG2R61     9   180.000000     4.184000     2
   OG2D1    CG2O1   CG2R61   CG2R64     9   180.000000     0.000000     2
   OG2D1    CG2O1   CG2R61   CG2RC0     9   180.000000     4.184000     2
   OG2D1    CG2O1   CG2R61   NG2R60     9   180.000000     8.116960     2
   OG2D1    CG2O1   CG2R61   NG2R62     9   180.000000     8.116960     2
   OG2D1    CG2O1   CG2R62   CG2R62     9   180.000000     9.957920     2
   OG2D1    CG2O1   CG2R62   CG2R63     9   180.000000     9.957920     2
   OG2D1    CG2O1   CG2R62   NG2R61     9     0.000000     1.338880     2
   OG2D1    CG2O1   CG2R64   NG2R61     9   180.000000     4.937120     2
   OG2D1    CG2O1   CG2R64   NG2R61     9   180.000000     4.184000     3
   OG2D1    CG2O1   CG2R64   NG2R62     9   180.000000     3.221680     2
   OG2D1    CG2O1   CG2R64   NG2R62     9   180.000000     0.753120     3
   OG2D1    CG2O1    CG301    CG311     9     0.000000     5.857600     1
   OG2D1    CG2O1    CG301    CG321     9     0.000000     5.857600     1
   OG2D1    CG2O1    CG301    CG324     9     0.000000     0.543920     4
   OG2D1    CG2O1    CG301    CG324     9   180.000000     2.886960     6
   OG2D1    CG2O1    CG301    CG331     9     0.000000     5.857600     1
   OG2D1    CG2O1    CG301   CG3RC1     9   180.000000     0.167360     1
   OG2D1    CG2O1    CG301   CG3RC1     9     0.000000     0.460240     2
   OG2D1    CG2O1    CG301    NG2S0     9     0.000000     0.000000     1
   OG2D1    CG2O1    CG301    NG3P1     9     0.000000     0.041840     1
   OG2D1    CG2O1    CG301    NG3P1     9   180.000000     0.376560     2
   OG2D1    CG2O1    CG301    OG311     9   180.000000     7.029120     2
   OG2D1    CG2O1    CG301    SG3O2     9     0.000000     2.552240     1
   OG2D1    CG2O1    CG301    SG3O2     9   180.000000     0.334720     4
   OG2D1    CG2O1    CG311    CG2D1     9   180.000000    11.924400     2
   OG2D1    CG2O1    CG311    CG2D1     9     0.000000     5.648400     3
   OG2D1    CG2O1    CG311   CG2DC1     9   180.000000     0.460240     2
   OG2D1    CG2O1    CG311   CG2DC1     9   180.000000     0.711280     3
   OG2D1    CG2O1    CG311   CG2DC2     9   180.000000     0.460240     2
   OG2D1    CG2O1    CG311   CG2DC2     9   180.000000     0.711280     3
   OG2D1    CG2O1    CG311    CG2O1     9     0.000000     1.548080     2
   OG2D1    CG2O1    CG311    CG2O1     9   180.000000     0.543920     3
   OG2D1    CG2O1    CG311    CG2O1     9     0.000000     1.506240     4
   OG2D1    CG2O1    CG311    CG2O3     9   180.000000     0.210874     2
   OG2D1    CG2O1    CG311    CG2O3     9   180.000000     0.197903     3
   OG2D1    CG2O1    CG311    CG2O5     9     0.000000     0.167360     2
   OG2D1    CG2O1    CG311    CG2O5     9     0.000000     0.836800     3
   OG2D1    CG2O1    CG311   CG2R51     9   180.000000     5.230000     2
   OG2D1    CG2O1    CG311   CG2R51     9     0.000000     8.744560     3
   OG2D1    CG2O1    CG311   CG2R51     9   180.000000     0.543920     4
   OG2D1    CG2O1    CG311   CG2R51     9   180.000000     1.631760     6
   OG2D1    CG2O1    CG311   CG2R61     9   180.000000     2.803280     2
   OG2D1    CG2O1    CG311   CG2R61     9     0.000000     3.932960     3
   OG2D1    CG2O1    CG311    CG301     9     0.000000     5.857600     1
   OG2D1    CG2O1    CG311    CG302     9     0.000000     7.196480     1
   OG2D1    CG2O1    CG311    CG302     9   180.000000     6.652560     2
   OG2D1    CG2O1    CG311    CG311     9     0.000000     5.857600     1
   OG2D1    CG2O1    CG311    CG321     9     0.000000     5.857600     1
   OG2D1    CG2O1    CG311    CG323     9     0.000000     5.857600     1
   OG2D1    CG2O1    CG311    CG331     9     0.000000     5.857600     1
   OG2D1    CG2O1    CG311    NG2S0     9     0.000000     0.000000     1
   OG2D1    CG2O1    CG311    NG2S1     9     0.000000     0.000000     1
   OG2D1    CG2O1    CG311    NG301     9   180.000000    23.430400     1
   OG2D1    CG2O1    CG311    NG301     9     0.000000     0.000000     2
   OG2D1    CG2O1    CG311    NG311     9   180.000000    20.878160     1
   OG2D1    CG2O1    CG311    NG311     9     0.000000     0.167360     2
   OG2D1    CG2O1    CG311   NG3C51     9     0.000000     2.970640     1
   OG2D1    CG2O1    CG311   NG3C51     9     0.000000     0.251040     6
   OG2D1    CG2O1    CG311    OG301     9   180.000000     0.669440     2
   OG2D1    CG2O1    CG311    OG301     9     0.000000     4.393200     3
   OG2D1    CG2O1    CG311    OG311     9   180.000000     7.028702     2
   OG2D1    CG2O1    CG311   OG3C61     9     0.000000     0.083680     2
   OG2D1    CG2O1    CG311    SG311     9     0.000000     5.936259     1
   OG2D1    CG2O1    CG311     HGA1     9     0.000000     0.000000     1
   OG2D1    CG2O1    CG312    CG311     9     0.000000     0.794960     2
   OG2D1    CG2O1    CG312    CG311     9   180.000000     0.460240     4
   OG2D1    CG2O1    CG312    CG321     9     0.000000     0.000000     2
   OG2D1    CG2O1    CG312     FGA2     9     0.000000     2.301200     2
   OG2D1    CG2O1    CG312     FGA2     9   180.000000     0.209200     6
   OG2D1    CG2O1    CG314    CG311     9     0.000000     5.857600     1
   OG2D1    CG2O1    CG314    CG321     9     0.000000     5.857600     1
   OG2D1    CG2O1    CG314    CG323     9     0.000000     5.857600     1
   OG2D1    CG2O1    CG314    CG331     9     0.000000     5.857600     1
   OG2D1    CG2O1    CG314    NG3P0     9     0.000000     0.000000     1
   OG2D1    CG2O1    CG314    NG3P1     9     0.000000     0.000000     1
   OG2D1    CG2O1    CG314    NG3P3     9     0.000000     0.000000     1
   OG2D1    CG2O1    CG314     HGA1     9     0.000000     0.000000     1
   OG2D1    CG2O1    CG314     HGP5     9   180.000000     1.106668     2
   OG2D1    CG2O1    CG321    CG2D1     9     0.000000     0.000000     2
   OG2D1    CG2O1    CG321    CG2D1     9     0.000000     4.100320     3
   OG2D1    CG2O1    CG321   CG2DC1     9     0.000000     0.000000     2
   OG2D1    CG2O1    CG321   CG2DC1     9   180.000000     0.418400     3
   OG2D1    CG2O1    CG321   CG2DC2     9     0.000000     0.000000     2
   OG2D1    CG2O1    CG321   CG2DC2     9   180.000000     0.418400     3
   OG2D1    CG2O1    CG321    CG2O1     9     0.000000     3.138000     2
   OG2D1    CG2O1    CG321    CG2O1     9   180.000000     0.209200     3
   OG2D1    CG2O1    CG321    CG2O1     9   180.000000     0.000000     4
   OG2D1    CG2O1    CG321    CG2O5     9   180.000000    10.250800     2
   OG2D1    CG2O1    CG321    CG2O5     9   180.000000     2.217520     3
   OG2D1    CG2O1    CG321   CG2R51     9   180.000000     2.803280     2
   OG2D1    CG2O1    CG321   CG2R51     9     0.000000     3.932960     3
   OG2D1    CG2O1    CG321   CG2R61     9   180.000000     2.803280     2
   OG2D1    CG2O1    CG321   CG2R61     9     0.000000     3.932960     3
   OG2D1    CG2O1    CG321   CG2R62     9   180.000000     2.803280     2
   OG2D1    CG2O1    CG321   CG2R62     9     0.000000     3.932960     3
   OG2D1    CG2O1    CG321    CG311     9   180.000000     0.209200     6
   OG2D1    CG2O1    CG321    CG314     9   180.000000     0.209200     6
   OG2D1    CG2O1    CG321    CG321     9   180.000000     0.209200     6
   OG2D1    CG2O1    CG321    CG324     9   180.000000     0.209200     6
   OG2D1    CG2O1    CG321    CG331     9   180.000000     0.209200     6
   OG2D1    CG2O1    CG321   NG2R51     9     0.000000     1.255200     1
   OG2D1    CG2O1    CG321   NG2R53     9     0.000000     0.000000     1
   OG2D1    CG2O1    CG321    NG2S0     9     0.000000     0.000000     1
   OG2D1    CG2O1    CG321    NG2S1     9     0.000000     0.000000     1
   OG2D1    CG2O1    CG321    NG301     9   180.000000     7.782240     1
   OG2D1    CG2O1    CG321    NG301     9     0.000000     0.000000     2
   OG2D1    CG2O1    CG321    NG311     9   180.000000     0.334720     1
   OG2D1    CG2O1    CG321    NG311     9     0.000000     0.000000     2
   OG2D1    CG2O1    CG321    OG301     9     0.000000     3.598240     2
   OG2D1    CG2O1    CG321   OG3C61     9     0.000000     0.000000     2
   OG2D1    CG2O1    CG321    SG311     9     0.000000     6.242528     1
   OG2D1    CG2O1    CG321    SG311     9   180.000000     8.125746     2
   OG2D1    CG2O1    CG321    SG311     9     0.000000     2.594080     3
   OG2D1    CG2O1    CG321    SG311     9   180.000000     1.159386     6
   OG2D1    CG2O1    CG321    SG3O2     9   180.000000     0.334720     1
   OG2D1    CG2O1    CG321    SG3O2     9     0.000000     1.171520     2
   OG2D1    CG2O1    CG321    SG3O2     9   180.000000     1.297040     3
   OG2D1    CG2O1    CG321    SG3O2     9     0.000000     2.845120     4
   OG2D1    CG2O1    CG321    SG3O2     9   180.000000     0.711280     6
   OG2D1    CG2O1    CG321     HGA2     9   180.000000     0.000000     3
   OG2D1    CG2O1    CG322    CG321     9   180.000000     1.673600     2
   OG2D1    CG2O1    CG322     FGA1     9   180.000000     2.008320     2
   OG2D1    CG2O1    CG322     FGA1     9   180.000000     0.209200     4
   OG2D1    CG2O1    CG322     HGA6     9     0.000000     1.464400     2
   OG2D1    CG2O1    CG322     HGA6     9     0.000000     1.087840     4
   OG2D1    CG2O1    CG324    NG2P1     9   180.000000     5.899440     1
   OG2D1    CG2O1    CG324    NG2P1     9     0.000000    12.133600     2
   OG2D1    CG2O1    CG324    NG2P1     9     0.000000     2.719600     3
   OG2D1    CG2O1    CG324    NG3P1     9     0.000000     0.000000     1
   OG2D1    CG2O1    CG324    NG3P3     9     0.000000     0.000000     1
   OG2D1    CG2O1    CG324     HGA2     9   180.000000     0.000000     3
   OG2D1    CG2O1    CG331     HGA3     9   180.000000     0.000000     3
   OG2D1    CG2O1   CG3C31    CG2O1     9     0.000000     0.502080     2
   OG2D1    CG2O1   CG3C31    CG2O1     9   180.000000     1.129680     4
   OG2D1    CG2O1   CG3C31   CG3C31     9     0.000000    19.497440     1
   OG2D1    CG2O1   CG3C31   CG3C31     9   180.000000     0.711280     2
   OG2D1    CG2O1   CG3C31   CG3C31     9     0.000000     4.978960     6
   OG2D1    CG2O1   CG3C41   CG3C41     9   180.000000     0.753120     1
   OG2D1    CG2O1   CG3C41   CG3C41     9     0.000000     9.497680     2
   OG2D1    CG2O1   CG3C41   CG3C41     9   180.000000     0.669440     4
   OG2D1    CG2O1   CG3C41   CG3C41     9     0.000000     0.418400     6
   OG2D1    CG2O1   CG3C41    NG2S1     9   180.000000     8.284320     2
   OG2D1    CG2O1   CG3C41    NG2S1     9     0.000000     4.058480     4
   OG2D1    CG2O1   CG3C41     HGA1     9     0.000000     0.000000     1
   OG2D1    CG2O1   CG3C41     HGA1     9     0.000000     0.000000     2
   OG2D1    CG2O1   CG3C50    CG2O1     9   180.000000     3.305360     2
   OG2D1    CG2O1   CG3C50    CG2O1     9     0.000000     2.343040     4
   OG2D1    CG2O1   CG3C50   CG3C52     9   180.000000     1.673600     1
   OG2D1    CG2O1   CG3C50   CG3C52     9     0.000000     2.510400     2
   OG2D1    CG2O1   CG3C50    NG2S0     9   180.000000     1.255200     4
   OG2D1    CG2O1   CG3C50    NG2S1     9   180.000000     1.255200     4
   OG2D1    CG2O1   CG3C50    OG311     9     0.000000     0.798726     3
   OG2D1    CG2O1   CG3C51   CG2R51     9   180.000000     2.666882     1
   OG2D1    CG2O1   CG3C51   CG2R51     9     0.000000     1.812090     2
   OG2D1    CG2O1   CG3C51   CG2RC0     9   180.000000     2.677760     1
   OG2D1    CG2O1   CG3C51   CG2RC0     9     0.000000     1.799120     2
   OG2D1    CG2O1   CG3C51   CG3C50     9   180.000000     1.673600     1
   OG2D1    CG2O1   CG3C51   CG3C50     9     0.000000     2.510400     2
   OG2D1    CG2O1   CG3C51   CG3C51     9   180.000000     1.673600     1
   OG2D1    CG2O1   CG3C51   CG3C51     9     0.000000     2.510400     2
   OG2D1    CG2O1   CG3C51   CG3C52     9   180.000000     1.673600     1
   OG2D1    CG2O1   CG3C51   CG3C52     9     0.000000     2.510400     2
   OG2D1    CG2O1   CG3C51   CG3C53     9     0.000000     1.129680     1
   OG2D1    CG2O1   CG3C51   CG3C53     9     0.000000     4.853440     2
   OG2D1    CG2O1   CG3C51   CG3C53     9     0.000000     0.292880     3
   OG2D1    CG2O1   CG3C51    NG2S0     9     0.000000    -1.255200     4
   OG2D1    CG2O1   CG3C51   NG3C51     9   180.000000     3.208710     1
   OG2D1    CG2O1   CG3C51   OG3C51     9   180.000000     0.669440     1
   OG2D1    CG2O1   CG3C51   OG3C51     9     0.000000     1.548080     3
   OG2D1    CG2O1   CG3C51     HGA1     9     0.000000     1.673600     1
   OG2D1    CG2O1   CG3C51     HGA1     9     0.000000     2.510400     2
   OG2D1    CG2O1   CG3C53   CG3C52     9   180.000000     1.673600     1
   OG2D1    CG2O1   CG3C53   CG3C52     9     0.000000     2.510400     2
   OG2D1    CG2O1   CG3C53    NG3P2     9     0.000000     0.585760     3
   OG2D1    CG2O1   CG3C53     HGA1     9     0.000000     1.673600     1
   OG2D1    CG2O1   CG3C53     HGA1     9     0.000000     2.510400     2
   OG2D1    CG2O1   CG3RC1   CG3C31     9     0.000000     3.765600     1
   OG2D1    CG2O1   CG3RC1   CG3C31     9   180.000000     3.807440     2
   OG2D1    CG2O1   CG3RC1   CG3C52     9     0.000000     3.430880     1
   OG2D1    CG2O1   CG3RC1   CG3C52     9   180.000000     0.794960     2
   OG2D1    CG2O1   CG3RC1   CG3C52     9     0.000000     3.012480     3
   OG2D1    CG2O1   CG3RC1   CG3RC1     9   180.000000     6.192320     1
   OG2D1    CG2O1   CG3RC1   CG3RC1     9     0.000000     1.171520     2
   OG2D1    CG2O1   CG3RC1    NG2S0     9     0.000000     1.171520     2
   OG2D1    CG2O1   CG3RC1    NG2S0     9   180.000000     0.292880     4
   OG2D1    CG2O1   CG3RC1     HGA1     9     0.000000     0.000000     1
   OG2D1    CG2O1   CG3RC1     HGA1     9     0.000000     0.000000     2
   OG2D1    CG2O1    NG2D1   CG2DC1     9   180.000000     0.094977     2
   OG2D1    CG2O1    NG2D1   CG2DC2     9   180.000000     0.094977     2
   OG2D1    CG2O1    NG2D1    CG2N1     9     0.000000     0.711280     1
   OG2D1    CG2O1    NG2D1    CG2N1     9   180.000000     7.238320     2
   OG2D1    CG2O1    NG2D1    CG2N1     9   180.000000     1.087840     3
   OG2D1    CG2O1    NG2D1    CG2N2     9   180.000000    18.303326     2
   OG2D1    CG2O1    NG2D1   CG2R61     9   180.000000     0.730108     1
   OG2D1    CG2O1    NG2D1   CG2R61     9   180.000000     2.089071     2
   OG2D1    CG2O1    NG2D1   CG2R61     9     0.000000     5.797350     3
   OG2D1    CG2O1    NG2D1   CG2R61     9   180.000000     4.614534     4
   OG2D1    CG2O1    NG2D1   CG2R61     9   180.000000     2.304129     5
   OG2D1    CG2O1    NG2D1   CG2R61     9     0.000000     0.851026     6
   OG2D1    CG2O1    NG2D1   CG2R64     9   180.000000     0.711280     1
   OG2D1    CG2O1    NG2D1   CG2R64     9   180.000000     2.092000     2
   OG2D1    CG2O1    NG2D1   CG2R64     9     0.000000     5.815760     3
   OG2D1    CG2O1    NG2D1   CG2R64     9   180.000000     4.602400     4
   OG2D1    CG2O1    NG2D1   CG2R64     9   180.000000     2.301200     5
   OG2D1    CG2O1    NG2D1   CG2R64     9     0.000000     0.836800     6
   OG2D1    CG2O1    NG2D1    CG321     9   180.000000    32.844400     2
   OG2D1    CG2O1    NG2D1    CG331     9   180.000000    32.844400     2
   OG2D1    CG2O1   NG2R51   CG2R51     9   180.000000     5.983120     2
   OG2D1    CG2O1   NG2R51   CG2R51     9     0.000000     0.753120     4
   OG2D1    CG2O1   NG2R51   CG2RC0     9   180.000000     5.983120     2
   OG2D1    CG2O1   NG2R51   CG2RC0     9     0.000000     0.753120     4
   OG2D1    CG2O1   NG2R52   CG2R53     9   180.000000     6.276000     1
   OG2D1    CG2O1   NG2R52   CG2R53     9   180.000000     1.297040     2
   OG2D1    CG2O1   NG2R52   CG2R53     9     0.000000     3.849280     3
   OG2D1    CG2O1   NG2R52   CG2R53     9     0.000000     3.640080     4
   OG2D1    CG2O1   NG2R52   CG2R53     9     0.000000     0.962320     5
   OG2D1    CG2O1   NG2R52   CG2R53     9   180.000000     1.548080     6
   OG2D1    CG2O1   NG2R52   CG3C54     9   180.000000     0.920480     2
   OG2D1    CG2O1   NG2R53   CG2R53     9     0.000000     0.000000     2
   OG2D1    CG2O1   NG2R53   CG2R53     9     0.000000     1.422560     4
   OG2D1    CG2O1   NG2R53   CG2RC0     9   180.000000    15.899200     2
   OG2D1    CG2O1   NG2R53   CG2RC0     9   180.000000     1.840960     4
   OG2D1    CG2O1   NG2R61   CG2R61     9     0.000000     0.000000     2
   OG2D1    CG2O1   NG2R61   CG2R64     9   180.000000     4.309520     2
   OG2D1    CG2O1    NG2S0   CG2D1O     9     0.000000     0.000000     2
   OG2D1    CG2O1    NG2S0   CG2D2O     9     0.000000     0.000000     2
   OG2D1    CG2O1    NG2S0    CG2O1     9   180.000000     2.301200     2
   OG2D1    CG2O1    NG2S0    CG2O6     9     0.000000     1.213360     2
   OG2D1    CG2O1    NG2S0   CG2R61     9   180.000000    10.460000     2
   OG2D1    CG2O1    NG2S0   CG2R64     9   180.000000    10.460000     2
   OG2D1    CG2O1    NG2S0   CG2RC0     9   180.000000    10.460000     2
   OG2D1    CG2O1    NG2S0    CG301     9   180.000000    10.878400     2
   OG2D1    CG2O1    NG2S0    CG311     9   180.000000    10.878400     2
   OG2D1    CG2O1    NG2S0    CG321     9   180.000000    10.878400     2
   OG2D1    CG2O1    NG2S0    CG331     9   180.000000    10.878400     2
   OG2D1    CG2O1    NG2S0   CG3C31     9   180.000000    11.506000     2
   OG2D1    CG2O1    NG2S0   CG3C31     9     0.000000     1.255200     4
   OG2D1    CG2O1    NG2S0   CG3C50     9   180.000000    11.506000     2
   OG2D1    CG2O1    NG2S0   CG3C50     9     0.000000     1.255200     4
   OG2D1    CG2O1    NG2S0   CG3C51     9   180.000000    11.506000     2
   OG2D1    CG2O1    NG2S0   CG3C51     9     0.000000     1.255200     4
   OG2D1    CG2O1    NG2S0   CG3C52     9   180.000000    11.506000     2
   OG2D1    CG2O1    NG2S0   CG3C52     9     0.000000     1.255200     4
   OG2D1    CG2O1    NG2S0   CG3RC1     9   180.000000    11.506000     2
   OG2D1    CG2O1    NG2S0   CG3RC1     9     0.000000     1.255200     4
   OG2D1    CG2O1    NG2S0    NG2D1     9   180.000000    14.560320     2
   OG2D1    CG2O1    NG2S0    NG2S1     9     0.000000     0.000000     2
   OG2D1    CG2O1    NG2S0    NG3N1     9     0.000000     0.209200     1
   OG2D1    CG2O1    NG2S0    NG3N1     9     0.000000     0.083680     2
   OG2D1    CG2O1    NG2S0    NG3N1     9   180.000000     7.573040     3
   OG2D1    CG2O1    NG2S0    OG301     9     0.000000     3.556400     1
   OG2D1    CG2O1    NG2S0    OG301     9   180.000000     9.539520     2
   OG2D1    CG2O1    NG2S0    OG301     9   180.000000     4.811600     3
   OG2D1    CG2O1    NG2S0    OG311     9   180.000000    14.626846     1
   OG2D1    CG2O1    NG2S0    OG311     9   180.000000    36.542219     2
   OG2D1    CG2O1    NG2S0    OG311     9   180.000000     3.280256     3
   OG2D1    CG2O1    NG2S1   CG2D1O     9   180.000000     8.982211     2
   OG2D1    CG2O1    NG2S1   CG2D2O     9   180.000000     8.982211     2
   OG2D1    CG2O1    NG2S1    CG2O1     9   180.000000     2.426720     2
   OG2D1    CG2O1    NG2S1    CG2O6     9   180.000000     2.426720     2
   OG2D1    CG2O1    NG2S1   CG2R51     9   180.000000    10.460000     2
   OG2D1    CG2O1    NG2S1   CG2R53     9   180.000000    10.460000     2
   OG2D1    CG2O1    NG2S1   CG2R61     9   180.000000    10.460000     2
   OG2D1    CG2O1    NG2S1   CG2R62     9   180.000000    10.460000     2
   OG2D1    CG2O1    NG2S1   CG2R64     9   180.000000    10.460000     2
   OG2D1    CG2O1    NG2S1    CG301     9   180.000000    10.460000     2
   OG2D1    CG2O1    NG2S1    CG311     9   180.000000    10.460000     2
   OG2D1    CG2O1    NG2S1    CG321     9   180.000000    10.460000     2
   OG2D1    CG2O1    NG2S1    CG331     9   180.000000    10.460000     2
   OG2D1    CG2O1    NG2S1   CG3C41     9   180.000000    10.460000     2
   OG2D1    CG2O1    NG2S1   CG3C50     9   180.000000    10.460000     2
   OG2D1    CG2O1    NG2S1   CG3C51     9   180.000000    10.460000     2
   OG2D1    CG2O1    NG2S1   CG3RC1     9   180.000000    10.460000     2
   OG2D1    CG2O1    NG2S1    NG2D1     9   180.000000    10.460000     2
   OG2D1    CG2O1    NG2S1    NG2S0     9     0.000000     0.209200     2
   OG2D1    CG2O1    NG2S1    NG2S1     9   180.000000     9.706880     2
   OG2D1    CG2O1    NG2S1    OG311     9   180.000000     0.237233     2
   OG2D1    CG2O1    NG2S1    SG3O3     9   180.000000     9.204800     2
   OG2D1    CG2O1    NG2S1     HGP1     9   180.000000    10.460000     2
   OG2D1    CG2O1    NG2S2     HGP1     9   180.000000     5.857600     2
   OG2D1    CG2O1      NH1      CT3     9   180.000000    10.460000     2
   OG2D1    CG2O1      NH1        H     9   180.000000    10.460000     2
   OG2D1    CG2O1      NH1      CT1     9   180.000000    10.460000     2
   OG2D1    CG2O1      NH1      CT2     9   180.000000    10.460000     2
   OG2D1    CG2O1        N      CP1     9   180.000000    11.506000     2
   OG2D1    CG2O1        N      CP1     9     0.000000     1.255200     4
   OG2D1    CG2O1        N      CP3     9   180.000000    11.506000     2
   OG2D1    CG2O1        N      CP3     9     0.000000     1.255200     4
   OG2D1    CG2O2   CG2R51   CG2R51     9   180.000000     6.945440     2
   OG2D1    CG2O2   CG2R51   SG2R50     9   180.000000     6.778080     2
   OG2D1    CG2O2   CG2R52   CG2R51     9     0.000000     0.000000     2
   OG2D1    CG2O2   CG2R52   CG2RC0     9     0.000000     0.000000     2
   OG2D1    CG2O2   CG2R52   NG2R50     9   180.000000     7.991440     2
   OG2D1    CG2O2   CG2R53   NG2R50     9     0.000000     0.000000     2
   OG2D1    CG2O2   CG2R53   SG2R50     9   180.000000     7.865920     2
   OG2D1    CG2O2   CG2R61   CG2R61     9   180.000000     4.288600     2
   OG2D1    CG2O2   CG2R61   CG2R62     9   180.000000     4.267680     2
   OG2D1    CG2O2   CG2R61   CG2R63     9   180.000000     4.267680     2
   OG2D1    CG2O2   CG2R61   CG2RC0     9   180.000000     4.267680     2
   OG2D1    CG2O2   CG2R61   NG2R60     9   180.000000     0.000000     2
   OG2D1    CG2O2   CG2R61   NG2R60     9   180.000000     0.000000     3
   OG2D1    CG2O2   CG2R61   NG2R62     9   180.000000     0.000000     2
   OG2D1    CG2O2   CG2R61   NG2R62     9     0.000000     3.723760     3
   OG2D1    CG2O2   CG2R62   CG2R62     9   180.000000     4.267680     2
   OG2D1    CG2O2   CG2R62   CG2R63     9   180.000000     4.267680     2
   OG2D1    CG2O2   CG2R62   NG2R61     9   180.000000     9.957920     2
   OG2D1    CG2O2   CG2R62   OG3R60     9   180.000000     5.983120     2
   OG2D1    CG2O2   CG2R64   NG2R61     9   180.000000     9.539520     2
   OG2D1    CG2O2   CG2R64   NG2R62     9   180.000000     8.911920     2
   OG2D1    CG2O2   CG2R64   NG2R62     9   180.000000     0.794960     3
   OG2D1    CG2O2    CG301    CG311     9   180.000000     0.209200     6
   OG2D1    CG2O2    CG301    CG321     9   180.000000     0.209200     6
   OG2D1    CG2O2    CG301    CG331     9   180.000000     0.209200     6
   OG2D1    CG2O2    CG301    NG321     9   180.000000     0.000000     6
   OG2D1    CG2O2    CG311   CG2DC1     9     0.000000     2.175680     1
   OG2D1    CG2O2    CG311   CG2DC1     9     0.000000     0.669440     3
   OG2D1    CG2O2    CG311   CG2DC1     9   180.000000     1.422560     4
   OG2D1    CG2O2    CG311   CG2DC2     9     0.000000     2.175680     1
   OG2D1    CG2O2    CG311   CG2DC2     9     0.000000     0.669440     3
   OG2D1    CG2O2    CG311   CG2DC2     9   180.000000     1.422560     4
   OG2D1    CG2O2    CG311    CG2O3     9     0.000000    13.010566     2
   OG2D1    CG2O2    CG311    CG2O5     9   180.000000     1.046000     2
   OG2D1    CG2O2    CG311    CG2O5     9   180.000000     0.543920     6
   OG2D1    CG2O2    CG311   CG2R53     9     0.000000     2.928800     1
   OG2D1    CG2O2    CG311   CG2R53     9   180.000000     1.255200     3
   OG2D1    CG2O2    CG311   CG2R61     9     0.000000     2.928800     1
   OG2D1    CG2O2    CG311   CG2R61     9   180.000000     1.255200     3
   OG2D1    CG2O2    CG311   CG2R62     9     0.000000     2.928800     1
   OG2D1    CG2O2    CG311   CG2R62     9   180.000000     1.255200     3
   OG2D1    CG2O2    CG311    CG301     9   180.000000     0.209200     6
   OG2D1    CG2O2    CG311    CG311     9   180.000000     0.209200     6
   OG2D1    CG2O2    CG311    CG321     9   180.000000     0.209200     6
   OG2D1    CG2O2    CG311    CG331     9   180.000000     0.209200     6
   OG2D1    CG2O2    CG311   CG3RC1     9     0.000000     3.723760     4
   OG2D1    CG2O2    CG311   CG3RC1     9   180.000000     2.343040     6
   OG2D1    CG2O2    CG311   NG2R51     9     0.000000     0.000000     1
   OG2D1    CG2O2    CG311   NG2R53     9     0.000000     0.000000     1
   OG2D1    CG2O2    CG311    NG2S1     9     0.000000     0.000000     1
   OG2D1    CG2O2    CG311    NG321     9   180.000000     0.000000     6
   OG2D1    CG2O2    CG311    OG311     9   180.000000     2.301200     2
   OG2D1    CG2O2    CG311     HGA1     9     0.000000     0.000000     3
   OG2D1    CG2O2    CG321    CG2O3     9   180.000000     8.834516     2
   OG2D1    CG2O2    CG321    CG2O3     9     0.000000     9.689726     3
   OG2D1    CG2O2    CG321   CG2R61     9     0.000000     3.556400     1
   OG2D1    CG2O2    CG321   CG2R62     9     0.000000     3.556400     1
   OG2D1    CG2O2    CG321    CG301     9   180.000000     0.000000     6
   OG2D1    CG2O2    CG321    CG311     9   180.000000     0.000000     6
   OG2D1    CG2O2    CG321    CG321     9   180.000000     0.209200     6
   OG2D1    CG2O2    CG321    CG331     9   180.000000     0.209200     6
   OG2D1    CG2O2    CG321    NG2S1     9     0.000000     0.000000     1
   OG2D1    CG2O2    CG321    NG311     9   180.000000     0.000000     6
   OG2D1    CG2O2    CG321    NG321     9   180.000000     0.000000     6
   OG2D1    CG2O2    CG321    OG301     9     0.000000     0.418400     1
   OG2D1    CG2O2    CG321    OG301     9   180.000000     4.100320     2
   OG2D1    CG2O2    CG321     HGA2     9   180.000000     0.000000     6
   OG2D1    CG2O2    CG331     HGA3     9   180.000000     0.000000     6
   OG2D1    CG2O2   CG3C31   CG3C31     9   180.000000    15.941040     2
   OG2D1    CG2O2   CG3C31   CG3C31     9     0.000000     0.000000     6
   OG2D1    CG2O2   CG3C31     HGA1     9   180.000000     0.000000     3
   OG2D1    CG2O2   CG3C41   CG3C41     9   180.000000     1.715440     2
   OG2D1    CG2O2   CG3C41   CG3C41     9   180.000000     1.464400     3
   OG2D1    CG2O2   CG3C41   CG3RC1     9     0.000000     0.794960     2
   OG2D1    CG2O2   CG3C41   CG3RC1     9   180.000000     0.334720     6
   OG2D1    CG2O2   CG3C41     HGA1     9   180.000000     0.000000     3
   OG2D1    CG2O2   CG3C50   CG3C50     9     0.000000     1.631760     6
   OG2D1    CG2O2   CG3C50   CG3C52     9   180.000000     1.757280     6
   OG2D1    CG2O2   CG3C50    NG321     9     0.000000     0.334720     6
   OG2D1    CG2O2   CG3C51   CG2R51     9     0.000000     6.987280     1
   OG2D1    CG2O2   CG3C51   CG2R51     9   180.000000     2.050160     3
   OG2D1    CG2O2   CG3C51   CG2R53     9     0.000000    15.731840     1
   OG2D1    CG2O2   CG3C51   CG2R53     9     0.000000     0.041840     6
   OG2D1    CG2O2   CG3C51   CG2RC0     9     0.000000     6.778080     1
   OG2D1    CG2O2   CG3C51   CG2RC0     9   180.000000     3.012480     2
   OG2D1    CG2O2   CG3C51   CG2RC0     9     0.000000     0.083680     4
   OG2D1    CG2O2   CG3C51   CG3C50     9   180.000000     2.133840     2
   OG2D1    CG2O2   CG3C51   CG3C50     9   180.000000     7.405680     4
   OG2D1    CG2O2   CG3C51   CG3C50     9   180.000000     2.092000     6
   OG2D1    CG2O2   CG3C51   CG3C52     9   180.000000     1.297040     2
   OG2D1    CG2O2   CG3C51   CG3C52     9   180.000000     3.723760     3
   OG2D1    CG2O2   CG3C51   CG3C52     9     0.000000     1.087840     6
   OG2D1    CG2O2   CG3C51   CG3RC1     9   180.000000     0.543920     4
   OG2D1    CG2O2   CG3C51   CG3RC1     9     0.000000     1.213360     6
   OG2D1    CG2O2   CG3C51    NG2S0     9   180.000000     8.995600     1
   OG2D1    CG2O2   CG3C51    NG2S0     9   180.000000     1.087840     6
   OG2D1    CG2O2   CG3C51   NG3C51     9   180.000000     8.744560     4
   OG2D1    CG2O2   CG3C51   NG3C51     9   180.000000     8.075120     6
   OG2D1    CG2O2   CG3C51     HGA1     9   180.000000     0.000000     6
   OG2D1    CG2O2   CG3RC1   CG3C52     9     0.000000     3.263520     2
   OG2D1    CG2O2   CG3RC1   CG3C52     9     0.000000     0.627600     6
   OG2D1    CG2O2   CG3RC1    NG2S1     9   180.000000     2.175680     1
   OG2D1    CG2O2   CG3RC1    NG2S1     9   180.000000     5.564720     2
   OG2D1    CG2O2    OG302   CG2R61     9     0.000000     7.907760     1
   OG2D1    CG2O2    OG302   CG2R61     9     0.000000     0.000000     2
   OG2D1    CG2O2    OG302    CG301     9   180.000000     4.037560     1
   OG2D1    CG2O2    OG302    CG301     9   180.000000    16.108400     2
   OG2D1    CG2O2    OG302    CG311     9   180.000000     4.037560     1
   OG2D1    CG2O2    OG302    CG311     9   180.000000    16.108400     2
   OG2D1    CG2O2    OG302    CG321     9   180.000000     4.037560     1
   OG2D1    CG2O2    OG302    CG321     9   180.000000    16.108400     2
   OG2D1    CG2O2    OG302    CG331     9   180.000000     4.037560     1
   OG2D1    CG2O2    OG302    CG331     9   180.000000    16.108400     2
   OG2D1    CG2O2    OG303      PG1     9     0.000000     0.508774     1
   OG2D1    CG2O2    OG303      PG1     9   180.000000    14.045270     2
   OG2D1    CG2O2    OG303      PG2     9   180.000000     5.581456     1
   OG2D1    CG2O2    OG303      PG2     9   180.000000    16.179946     2
   OG2D1    CG2O2    OG311     HGP1     9   180.000000     8.577200     2
   OG2D1    CG2O2   OG3R60    CG311     9   180.000000     0.000000     1
   OG2D1    CG2O2   OG3R60    CG311     9   180.000000    14.936880     2
   OG2D1    CG2O2    SG311    CG321     9     0.000000     0.061923     1
   OG2D1    CG2O2    SG311    CG321     9   180.000000     9.651233     2
   OG2D1    CG2O2    SG311    CG321     9   180.000000     0.549359     3
   OG2D1    CG2O2    SG311    CG331     9   180.000000     8.414442     1
   OG2D1    CG2O2    SG311    CG331     9   180.000000    13.961171     2
   OG2D1    CG2O4   CG2R51   CG2R51     9     0.000000     0.000000     2
   OG2D1    CG2O4   CG2R51   SG2R50     9   180.000000     7.363840     2
   OG2D1    CG2O4   CG2R52   CG2R51     9     0.000000     0.041840     2
   OG2D1    CG2O4   CG2R52   NG2R50     9   180.000000     5.355520     2
   OG2D1    CG2O4   CG2R53   NG2R50     9     0.000000     3.681920     1
   OG2D1    CG2O4   CG2R53   NG2R50     9   180.000000     8.075120     2
   OG2D1    CG2O4   CG2R53   NG2RC0     9   180.000000     5.271840     2
   OG2D1    CG2O4   CG2R61   CG2R61     9   180.000000     4.518720     2
   OG2D1    CG2O4   CG2R61   CG2R64     9   180.000000     4.518720     2
   OG2D1    CG2O4   CG2R61   CG2R66     9   180.000000     4.518720     2
   OG2D1    CG2O4   CG2R61   CG2RC0     9   180.000000     4.518720     2
   OG2D1    CG2O4   CG2R62   CG2R62     9   180.000000     4.518720     2
   OG2D1    CG2O4   CG2R62   CG2R64     9   180.000000    10.878400     1
   OG2D1    CG2O4   CG2R62   CG2R64     9   180.000000     7.531200     2
   OG2D1    CG2O4    CG311    CG311     9   180.000000     4.393200     1
   OG2D1    CG2O4    CG311    CG311     9   180.000000     1.673600     2
   OG2D1    CG2O4    CG311    CG311     9   180.000000     2.510400     3
   OG2D1    CG2O4    CG311    CG311     9   180.000000     0.418400     4
   OG2D1    CG2O4    CG311    CG321     9   180.000000     4.393200     1
   OG2D1    CG2O4    CG311    CG321     9   180.000000     1.673600     2
   OG2D1    CG2O4    CG311    CG321     9   180.000000     2.510400     3
   OG2D1    CG2O4    CG311    CG321     9   180.000000     0.418400     4
   OG2D1    CG2O4    CG311    CG331     9   180.000000     4.393200     1
   OG2D1    CG2O4    CG311    CG331     9   180.000000     1.673600     2
   OG2D1    CG2O4    CG311    CG331     9   180.000000     2.510400     3
   OG2D1    CG2O4    CG311    CG331     9   180.000000     0.418400     4
   OG2D1    CG2O4    CG311    NG2S1     9     0.000000     0.000000     1
   OG2D1    CG2O4    CG311     HGA1     9   180.000000     0.000000     3
   OG2D1    CG2O4    CG321    CG331     9   180.000000     4.393200     1
   OG2D1    CG2O4    CG321    CG331     9   180.000000     1.673600     2
   OG2D1    CG2O4    CG321    CG331     9   180.000000     2.510400     3
   OG2D1    CG2O4    CG321    CG331     9   180.000000     0.418400     4
   OG2D1    CG2O4    CG321   NG2R51     9   180.000000     6.010316     1
   OG2D1    CG2O4    CG321   NG2R51     9   180.000000     6.037930     2
   OG2D1    CG2O4    CG321    CLGA1     9     0.000000     0.418400     1
   OG2D1    CG2O4    CG321    CLGA1     9   180.000000     4.184000     2
   OG2D1    CG2O4    CG321    CLGA1     9   180.000000     2.301200     3
   OG2D1    CG2O4    CG321     HGA2     9   180.000000     0.000000     3
   OG2D1    CG2O4    CG331     HGA3     9   180.000000     0.836800     3
   OG2D1    CG2O4   CG3C41   CG3C41     9     0.000000     0.416308     2
   OG2D1    CG2O4   CG3C41     HGA2     9   180.000000     1.907067     3
   OG2D1    CG2O4   OG3C51   CG3C41     9     0.000000     0.162758     2
   OG2D1    CG2O6    NG2D1   CG2D1O     9   180.000000     0.083680     2
   OG2D1    CG2O6    NG2D1   CG2D2O     9   180.000000     0.083680     2
   OG2D1    CG2O6    NG2D1   CG2R64     9   180.000000    13.472480     2
   OG2D1    CG2O6   NG2R51   CG2R51     9   180.000000     5.983120     2
   OG2D1    CG2O6   NG2R51   CG2R51     9     0.000000     0.753120     4
   OG2D1    CG2O6   NG2R52   CG2R51     9   180.000000     8.619040     2
   OG2D1    CG2O6   NG2R52   CG2R53     9   180.000000     4.518720     2
   OG2D1    CG2O6    NG2S0    CG2O1     9   180.000000    14.769520     2
   OG2D1    CG2O6    NG2S0   CG2R61     9   180.000000     5.439200     2
   OG2D1    CG2O6    NG2S0   CG2R64     9   180.000000     5.439200     2
   OG2D1    CG2O6    NG2S0    CG311     9   180.000000    11.715200     2
   OG2D1    CG2O6    NG2S0    CG321     9   180.000000    11.715200     2
   OG2D1    CG2O6    NG2S0    CG331     9   180.000000     9.623200     2
   OG2D1    CG2O6    NG2S0   CG3C41     9   180.000000    11.715200     2
   OG2D1    CG2O6    NG2S0   CG3C50     9   180.000000    11.506000     2
   OG2D1    CG2O6    NG2S0   CG3C50     9     0.000000     1.255200     4
   OG2D1    CG2O6    NG2S0   CG3RC1     9   180.000000    11.506000     2
   OG2D1    CG2O6    NG2S0   CG3RC1     9     0.000000     1.255200     4
   OG2D1    CG2O6    NG2S0   NG2R50     9   180.000000    24.978480     2
   OG2D1    CG2O6    NG2S0   OG3C61     9     0.000000     0.167360     1
   OG2D1    CG2O6    NG2S0   OG3C61     9   180.000000    15.899200     2
   OG2D1    CG2O6    NG2S0   OG3C61     9     0.000000     3.305360     3
   OG2D1    CG2O6    NG2S0    SG3O2     9   180.000000    15.941040     2
   OG2D1    CG2O6    NG2S0    SG3O2     9     0.000000     0.962320     4
   OG2D1    CG2O6    NG2S0     CN7B     9   180.000000    19.664800     2
   OG2D1    CG2O6    NG2S1    CG2O1     9   180.000000     1.924640     2
   OG2D1    CG2O6    NG2S1   CG2R61     9   180.000000     8.368000     2
   OG2D1    CG2O6    NG2S1   CG2R64     9   180.000000     8.368000     2
   OG2D1    CG2O6    NG2S1    CG311     9   180.000000    16.736000     2
   OG2D1    CG2O6    NG2S1    CG311     9     0.000000     3.974800     4
   OG2D1    CG2O6    NG2S1    CG321     9   180.000000    16.736000     2
   OG2D1    CG2O6    NG2S1    CG321     9     0.000000     3.974800     4
   OG2D1    CG2O6    NG2S1    CG331     9   180.000000    16.736000     2
   OG2D1    CG2O6    NG2S1    CG331     9     0.000000     3.974800     4
   OG2D1    CG2O6    NG2S1     HGP1     9   180.000000     0.000000     2
   OG2D1    CG2O6    NG2S2     HGP1     9   180.000000     5.857600     2
   OG2D1    CG2O6    OG302    CG321     9     0.000000     0.627600     1
   OG2D1    CG2O6    OG302    CG321     9   180.000000     9.204800     2
   OG2D1    CG2O6    OG302    CG321     9     0.000000     0.418400     3
   OG2D1    CG2O6    OG302    CG331     9   180.000000     1.046000     1
   OG2D1    CG2O6    OG302    CG331     9   180.000000     7.740400     2
   OG2D1    CG2O6    OG302    CG331     9     0.000000     0.502080     3
   OG2D1    CG2O6    OG311     HGP1     9   180.000000     8.368000     2
   OG2D1    CG2O6   OG3R60   CG2R61     9   180.000000     0.209200     1
   OG2D1    CG2O6   OG3R60   CG2R61     9   180.000000     6.610720     2
   OG2D1    CG2O6   OG3R60   CG2R61     9   180.000000     0.502080     3
   OG2D1    CG2O6   OG3R60    CG301     9   180.000000     0.753120     1
   OG2D1    CG2O6   OG3R60    CG301     9     0.000000     1.297040     2
   OG2D1    CG2O6   OG3R60    CG301     9     0.000000     9.581360     3
   OG2D1    CG2O6   OG3R60    CG321     9     0.000000     0.711280     1
   OG2D1    CG2O6   OG3R60    CG321     9     0.000000     0.041840     2
   OG2D1    CG2O6   OG3R60    CG321     9     0.000000    15.982880     3
   OG2D1    CG2O6    SG311    CG321     9   180.000000     3.304523     2
   OG2D1   CG2R53   CG2R53    OG2D1     9     0.000000     0.251040     2
   OG2D1   CG2R53   CG2R53   OG3C51     9     0.000000     0.000000     2
   OG2D1   CG2R53   CG2RC0   CG2R61     9     0.000000     0.000000     2
   OG2D1   CG2R53   CG2RC0   CG2R62     9     0.000000     0.669440     2
   OG2D1   CG2R53   CG2RC0   CG2R66     9     0.000000     4.895280     2
   OG2D1   CG2R53   CG2RC0   CG2RC0     9   180.000000    19.664800     2
   OG2D1   CG2R53   CG3C31   CG3C31     9   180.000000     1.129680     1
   OG2D1   CG2R53   CG3C31   CG3C31     9   180.000000     6.610720     2
   OG2D1   CG2R53   CG3C31   NG2R53     9   180.000000     2.008320     2
   OG2D1   CG2R53   CG3C31   NG2R53     9   180.000000     1.046000     4
   OG2D1   CG2R53   CG3C41   CG2R52     9     0.000000     0.000000     2
   OG2D1   CG2R53   CG3C41   CG2R52     9     0.000000     5.983120     3
   OG2D1   CG2R53   CG3C41    CG321     9     0.000000     7.405680     2
   OG2D1   CG2R53   CG3C41    CG321     9   180.000000     4.895280     3
   OG2D1   CG2R53   CG3C41   CG3C41     9     0.000000     2.384880     3
   OG2D1   CG2R53   CG3C41   CG3RC1     9     0.000000     2.719600     2
   OG2D1   CG2R53   CG3C41   CG3RC1     9     0.000000     2.510400     3
   OG2D1   CG2R53   CG3C41   NG2R53     9   180.000000     3.179840     2
   OG2D1   CG2R53   CG3C41   NG2R53     9   180.000000     1.799120     3
   OG2D1   CG2R53   CG3C41    NG321     9     0.000000     0.794960     3
   OG2D1   CG2R53   CG3C41    SG3O2     9   180.000000     0.125520     3
   OG2D1   CG2R53   CG3C41     HGA1     9     0.000000     2.384880     3
   OG2D1   CG2R53   CG3C41     HGA2     9     0.000000     2.384880     3
   OG2D1   CG2R53   CG3C50   CG2R52     9     0.000000     0.334720     3
   OG2D1   CG2R53   CG3C50   CG2R53     9     0.000000     0.334720     3
   OG2D1   CG2R53   CG3C50   CG2R57     9     0.000000     0.334720     3
   OG2D1   CG2R53   CG3C50   CG2R61     9   180.000000     3.681920     3
   OG2D1   CG2R53   CG3C50   CG2RC0     9     0.000000     0.334720     3
   OG2D1   CG2R53   CG3C50    CG302     9     0.000000     2.510400     3
   OG2D1   CG2R53   CG3C50    CG321     9     0.000000     0.334720     3
   OG2D1   CG2R53   CG3C50    CG331     9     0.000000     5.062640     3
   OG2D1   CG2R53   CG3C50   CG3C50     9     0.000000     0.334720     3
   OG2D1   CG2R53   CG3C50   CG3C51     9     0.000000     0.334720     3
   OG2D1   CG2R53   CG3C50   CG3C52     9     0.000000     0.334720     3
   OG2D1   CG2R53   CG3C50   CG3RC1     9     0.000000     0.334720     3
   OG2D1   CG2R53   CG3C50   NG2R50     9   180.000000     0.920480     2
   OG2D1   CG2R53   CG3C50   NG2R50     9     0.000000     0.000000     3
   OG2D1   CG2R53   CG3C50   NG2R53     9   180.000000    10.836560     2
   OG2D1   CG2R53   CG3C50   NG2R53     9   180.000000     5.941280     3
   OG2D1   CG2R53   CG3C50    NG311     9     0.000000     4.142160     3
   OG2D1   CG2R53   CG3C50   NG3C51     9   180.000000     3.891120     3
   OG2D1   CG2R53   CG3C50   NG3C51     9     0.000000     0.753120     6
   OG2D1   CG2R53   CG3C50    OG311     9     0.000000     3.807440     3
   OG2D1   CG2R53   CG3C50   OG3C51     9     0.000000     9.162960     2
   OG2D1   CG2R53   CG3C50   OG3C51     9   180.000000     0.585760     3
   OG2D1   CG2R53   CG3C51    CG2O2     9   180.000000     1.673600     2
   OG2D1   CG2R53   CG3C51    CG2O2     9     0.000000     0.962320     3
   OG2D1   CG2R53   CG3C51    CG2O3     9   180.000000     1.129680     2
   OG2D1   CG2R53   CG3C51    CG2O3     9   180.000000     0.627600     3
   OG2D1   CG2R53   CG3C51   CG2R51     9     0.000000     0.334720     3
   OG2D1   CG2R53   CG3C51   CG2R52     9     0.000000     0.334720     3
   OG2D1   CG2R53   CG3C51   CG2R53     9     0.000000     0.334720     3
   OG2D1   CG2R53   CG3C51    CG301     9     0.000000     0.334720     3
   OG2D1   CG2R53   CG3C51    CG321     9     0.000000     0.334720     3
   OG2D1   CG2R53   CG3C51    CG331     9     0.000000     0.334720     3
   OG2D1   CG2R53   CG3C51   CG3C50     9     0.000000     0.334720     3
   OG2D1   CG2R53   CG3C51   CG3C51     9     0.000000     0.334720     3
   OG2D1   CG2R53   CG3C51   CG3C52     9     0.000000     0.334720     3
   OG2D1   CG2R53   CG3C51   CG3RC1     9     0.000000     0.334720     3
   OG2D1   CG2R53   CG3C51   NG2R53     9   180.000000     3.974800     2
   OG2D1   CG2R53   CG3C51   NG2R53     9   180.000000     1.924640     3
   OG2D1   CG2R53   CG3C51    NG2S1     9     0.000000     1.171102     3
   OG2D1   CG2R53   CG3C51    NG321     9   180.000000     1.004160     3
   OG2D1   CG2R53   CG3C51   NG3C51     9   180.000000     7.363840     3
   OG2D1   CG2R53   CG3C51   NG3C51     9   180.000000     1.129680     6
   OG2D1   CG2R53   CG3C51   OG3C51     9     0.000000     0.000000     2
   OG2D1   CG2R53   CG3C51   OG3C51     9   180.000000     5.020800     3
   OG2D1   CG2R53   CG3C51    SG311     9     0.000000     0.337230     3
   OG2D1   CG2R53   CG3C51     HGA1     9     0.000000     0.000000     3
   OG2D1   CG2R53   CG3C52   CG25C1     9     0.000000     0.334720     3
   OG2D1   CG2R53   CG3C52   CG25C2     9     0.000000     0.334720     3
   OG2D1   CG2R53   CG3C52   CG2R51     9     0.000000     0.334720     3
   OG2D1   CG2R53   CG3C52   CG3C50     9     0.000000     0.334720     3
   OG2D1   CG2R53   CG3C52   CG3C51     9     0.000000     0.334720     3
   OG2D1   CG2R53   CG3C52   CG3C52     9     0.000000     0.334720     3
   OG2D1   CG2R53   CG3C52   CG3C53     9   180.000000     4.435040     2
   OG2D1   CG2R53   CG3C52   CG3C53     9     0.000000     0.836800     3
   OG2D1   CG2R53   CG3C52   CG3RC1     9     0.000000     0.334720     3
   OG2D1   CG2R53   CG3C52   NG2R53     9   180.000000     6.819920     2
   OG2D1   CG2R53   CG3C52   NG2R53     9   180.000000     0.502080     3
   OG2D1   CG2R53   CG3C52   NG3C51     9   180.000000     3.681920     2
   OG2D1   CG2R53   CG3C52   NG3C51     9     0.000000     3.179840     3
   OG2D1   CG2R53   CG3C52    SG311     9     0.000000     0.334720     3
   OG2D1   CG2R53   CG3C52    SG3O3     9     0.000000     0.711280     3
   OG2D1   CG2R53   CG3C52    SG3O3     9     0.000000     0.794960     6
   OG2D1   CG2R53   CG3C52     HGA2     9     0.000000     0.000000     3
   OG2D1   CG2R53   CG3C53   CG3C52     9     0.000000     0.334720     3
   OG2D1   CG2R53   CG3C53    NG3P3     9   180.000000     8.493520     2
   OG2D1   CG2R53   CG3C53    NG3P3     9   180.000000     1.087840     3
   OG2D1   CG2R53   CG3C53     HGA1     9     0.000000     0.000000     3
   OG2D1   CG2R53   CG3RC1   CG3C41     9     0.000000     5.355520     3
   OG2D1   CG2R53   CG3RC1   CG3C53     9     0.000000     0.125520     2
   OG2D1   CG2R53   CG3RC1   CG3C53     9   180.000000     1.840960     3
   OG2D1   CG2R53   CG3RC1   CG3C54     9   180.000000     1.924640     2
   OG2D1   CG2R53   CG3RC1   CG3C54     9   180.000000     2.343040     3
   OG2D1   CG2R53   CG3RC1   CG3RC1     9   180.000000     0.794960     2
   OG2D1   CG2R53   CG3RC1   CG3RC1     9     0.000000     3.138000     3
   OG2D1   CG2R53   CG3RC1   NG2R53     9     0.000000     0.502080     2
   OG2D1   CG2R53   CG3RC1   NG2R53     9   180.000000     6.317840     3
   OG2D1   CG2R53   CG3RC1     HGA1     9     0.000000     0.000000     3
   OG2D1   CG2R53   NG2R43   CG2D1O     9     0.000000     0.878640     2
   OG2D1   CG2R53   NG2R43   CG2D2O     9     0.000000     0.878640     2
   OG2D1   CG2R53   NG2R43   CG2R61     9     0.000000     0.167360     2
   OG2D1   CG2R53   NG2R43    CG321     9   180.000000     6.861760     2
   OG2D1   CG2R53   NG2R43    CG331     9     0.000000     3.598240     2
   OG2D1   CG2R53   NG2R43   CG3C41     9   180.000000    10.460000     2
   OG2D1   CG2R53   NG2R43   CG3RC1     9   180.000000     2.970640     2
   OG2D1   CG2R53   NG2R43     HGP1     9   180.000000    10.460000     2
   OG2D1   CG2R53   NG2R50   CG2R52     9     0.000000     1.129680     2
   OG2D1   CG2R53   NG2R50   CG2R53     9   180.000000     9.330320     2
   OG2D1   CG2R53   NG2R50   CG2R57     9   180.000000    11.254960     2
   OG2D1   CG2R53   NG2R50   CG2RC0     9     0.000000     0.418400     2
   OG2D1   CG2R53   NG2R50   NG2R50     9     0.000000     0.000000     2
   OG2D1   CG2R53   NG2R51   CG2R51     9   180.000000    10.460000     2
   OG2D1   CG2R53   NG2R51   CG2R53     9   180.000000    10.460000     2
   OG2D1   CG2R53   NG2R51   CG2RC0     9   180.000000    10.460000     2
   OG2D1   CG2R53   NG2R51    CG301     9   180.000000     0.083680     2
   OG2D1   CG2R53   NG2R51    CG321     9   180.000000     0.083680     2
   OG2D1   CG2R53   NG2R51    CG331     9   180.000000     0.000418     2
   OG2D1   CG2R53   NG2R51   NG2R50     9   180.000000     9.079280     2
   OG2D1   CG2R53   NG2R51   NG2R51     9   180.000000     2.259360     2
   OG2D1   CG2R53   NG2R51   SG2R50     9     0.000000     0.000000     2
   OG2D1   CG2R53   NG2R51     HGP1     9   180.000000     3.598240     2
   OG2D1   CG2R53   NG2R53   CG251O     9   180.000000    25.104000     2
   OG2D1   CG2R53   NG2R53   CG252O     9   180.000000    25.104000     2
   OG2D1   CG2R53   NG2R53    CG2O1     9   180.000000     4.560560     2
   OG2D1   CG2R53   NG2R53   CG2R51     9   180.000000     4.602400     2
   OG2D1   CG2R53   NG2R53   CG2R53     9   180.000000     4.602400     2
   OG2D1   CG2R53   NG2R53   CG2R61     9     0.000000     1.046000     2
   OG2D1   CG2R53   NG2R53   CG2R64     9   180.000000     3.932960     2
   OG2D1   CG2R53   NG2R53   CG2RC0     9   180.000000     0.836800     2
   OG2D1   CG2R53   NG2R53    CG301     9   180.000000     2.217520     1
   OG2D1   CG2R53   NG2R53    CG301     9   180.000000     5.146320     2
   OG2D1   CG2R53   NG2R53    CG301     9   180.000000     1.338880     3
   OG2D1   CG2R53   NG2R53    CG311     9   180.000000    10.460000     2
   OG2D1   CG2R53   NG2R53    CG321     9   180.000000    10.460000     2
   OG2D1   CG2R53   NG2R53    CG331     9   180.000000     0.836800     2
   OG2D1   CG2R53   NG2R53   CG3C31     9   180.000000    10.460000     2
   OG2D1   CG2R53   NG2R53   CG3C41     9   180.000000    10.460000     2
   OG2D1   CG2R53   NG2R53   CG3C50     9   180.000000    21.380240     2
   OG2D1   CG2R53   NG2R53   CG3C51     9   180.000000     8.116960     2
   OG2D1   CG2R53   NG2R53   CG3C52     9   180.000000    10.836560     2
   OG2D1   CG2R53   NG2R53   CG3RC1     9   180.000000    10.836560     2
   OG2D1   CG2R53   NG2R53   NG2R50     9     0.000000     0.000000     2
   OG2D1   CG2R53   NG2R53   NG2R53     9   180.000000     1.297040     2
   OG2D1   CG2R53   NG2R53    SG311     9   180.000000     2.594080     2
   OG2D1   CG2R53   NG2R53    SG3O2     9   180.000000     9.999760     2
   OG2D1   CG2R53   NG2R53     HGP1     9   180.000000     3.598240     2
   OG2D1   CG2R53   NG2R57   CG2R57     9   180.000000     8.911920     2
   OG2D1   CG2R53   NG2R57   CG3C52     9   180.000000    17.028880     2
   OG2D1   CG2R53   NG2RC0   CG2R61     9   180.000000     0.711280     2
   OG2D1   CG2R53   NG2RC0   CG2RC0     9   180.000000    14.727680     2
   OG2D1   CG2R53   OG2R50   NG2R51     9     0.000000     0.000000     2
   OG2D1   CG2R53   OG3C51   CG251O     9   180.000000    18.158560     2
   OG2D1   CG2R53   OG3C51   CG252O     9   180.000000    18.158560     2
   OG2D1   CG2R53   OG3C51   CG2R51     9   180.000000    18.158560     2
   OG2D1   CG2R53   OG3C51   CG2R53     9   180.000000    17.112560     2
   OG2D1   CG2R53   OG3C51   CG2RC7     9   180.000000    11.380480     2
   OG2D1   CG2R53   OG3C51   CG3C41     9   180.000000    11.589680     2
   OG2D1   CG2R53   OG3C51   CG3C50     9   180.000000    18.158560     2
   OG2D1   CG2R53   OG3C51   CG3C51     9   180.000000    18.158560     2
   OG2D1   CG2R53   OG3C51   CG3C52     9   180.000000    18.158560     2
   OG2D1   CG2R53   OG3C51   CG3RC1     9   180.000000    19.915840     2
   OG2D1   CG2R53   SG2R50   SG2R50     9     0.000000     0.000000     2
   OG2D1   CG2R53    SG311   CG251O     9     0.000000     1.046000     1
   OG2D1   CG2R53    SG311   CG251O     9   180.000000     5.439200     2
   OG2D1   CG2R53    SG311   CG252O     9     0.000000     1.046000     1
   OG2D1   CG2R53    SG311   CG252O     9   180.000000     5.439200     2
   OG2D1   CG2R53    SG311   CG3C51     9     0.000000     0.083680     1
   OG2D1   CG2R53    SG311   CG3C51     9   180.000000    11.296800     2
   OG2D1   CG2R53    SG311   CG3C52     9   180.000000     0.292880     1
   OG2D1   CG2R53    SG311   CG3C52     9   180.000000    10.585520     2
   OG2D1   CG2R71   CG2RC7   CG2R51     9   180.000000     3.054320     2
   OG2D1   CG2R71   CG2RC7   CG2R53     9   180.000000     4.602400     2
   OG2D1   CG2R71    NG2S1    NG3N1     9   180.000000    17.321760     2
   OG2D1   CG2R71    NG2S1     HGP1     9   180.000000     3.556400     2
   OG2D1    NG2D1    SG311    CG321     9   180.000000     1.648496     1
   OG2D1    NG2D1    SG311    CG321     9   180.000000    27.344532     2
   OG2D1    NG2D1    SG311    CG321     9   180.000000     3.252223     3
   OG2D1    NG2D1    SG311    CG321     9   180.000000     2.169404     4
   OG2D1    NG2D1    SG311    CG321     9     0.000000     0.494549     6
   NG2S2    CG2O1   CG2R51   CG2R51     9   180.000000     4.602400     2
   NG2S2    CG2O1   CG2R51   CG2R51     9     0.000000     1.255200     4
   NG2S2    CG2O1   CG2R51   CG2RC0     9   180.000000     4.602400     2
   NG2S2    CG2O1   CG2R51   CG2RC0     9     0.000000     1.255200     4
   NG2S2    CG2O1   CG2R51   NG2R50     9   180.000000     5.062640     2
   NG2S2    CG2O1   CG2R51   NG2R50     9   180.000000     0.041840     3
   NG2S2    CG2O1   CG2R51   NG2R50     9   180.000000     2.175680     4
   NG2S2    CG2O1   CG2R61   CG2R61     9   180.000000     4.184000     2
   NG2S2    CG2O1   CG2R61   CG2RC0     9   180.000000     4.184000     2
   NG2S2    CG2O1   CG2R61   NG2R60     9   180.000000     6.778080     2
   NG2S2    CG2O1   CG2R61   NG2R62     9   180.000000     6.778080     2
   NG2S2    CG2O1   CG2R62   CG2R62     9   180.000000     1.464400     1
   NG2S2    CG2O1   CG2R62   CG2R62     9     0.000000     2.594080     2
   NG2S2    CG2O1   CG2R62   CG2R63     9   180.000000     1.464400     1
   NG2S2    CG2O1   CG2R62   CG2R63     9     0.000000     2.594080     2
   NG2S2    CG2O1   CG2R64   NG2R61     9   180.000000     3.347200     2
   NG2S2    CG2O1   CG2R64   NG2R61     9   180.000000     1.757280     3
   NG2S2    CG2O1   CG2R64   NG2R62     9   180.000000     0.251040     2
   NG2S2    CG2O1   CG2R64   NG2R62     9   180.000000     7.865920     3
   NG2S2    CG2O1    CG301    CG311     9     0.000000     0.000000     1
   NG2S2    CG2O1    CG301    CG321     9     0.000000     0.000000     1
   NG2S2    CG2O1    CG301    CG324     9   180.000000     0.460240     4
   NG2S2    CG2O1    CG301    CG324     9   180.000000     0.711280     6
   NG2S2    CG2O1    CG301    OG311     9   180.000000     7.865920     1
   NG2S2    CG2O1    CG301    OG311     9     0.000000     7.112800     2
   NG2S2    CG2O1    CG301    OG311     9   180.000000     3.807440     3
   NG2S2    CG2O1    CG311   CG2R51     9   180.000000     1.757280     1
   NG2S2    CG2O1    CG311   CG2R51     9   180.000000     2.343040     3
   NG2S2    CG2O1    CG311   CG2R51     9   180.000000     0.711280     4
   NG2S2    CG2O1    CG311   CG2R61     9   180.000000     0.878640     1
   NG2S2    CG2O1    CG311   CG2R61     9     0.000000     2.301200     3
   NG2S2    CG2O1    CG311    CG311     9     0.000000     0.000000     1
   NG2S2    CG2O1    CG311    CG321     9     0.000000     0.000000     1
   NG2S2    CG2O1    CG311    CG323     9     0.000000     0.000000     1
   NG2S2    CG2O1    CG311    CG331     9     0.000000     0.000000     1
   NG2S2    CG2O1    CG311    NG2S1     9     0.000000     2.510400     1
   NG2S2    CG2O1    CG311    NG311     9   180.000000    32.677040     1
   NG2S2    CG2O1    CG311    NG311     9     0.000000     1.213360     4
   NG2S2    CG2O1    CG311    OG311     9   180.000000     7.880146     1
   NG2S2    CG2O1    CG311    OG311     9     0.000000     7.100666     2
   NG2S2    CG2O1    CG311    OG311     9   180.000000     3.825850     3
   NG2S2    CG2O1    CG311     HGA1     9     0.000000     0.000000     1
   NG2S2    CG2O1    CG314    CG311     9     0.000000     0.000000     1
   NG2S2    CG2O1    CG314    CG321     9     0.000000     0.000000     1
   NG2S2    CG2O1    CG314    CG323     9     0.000000     0.000000     1
   NG2S2    CG2O1    CG314    CG331     9     0.000000     0.000000     1
   NG2S2    CG2O1    CG314    NG3P0     9     0.000000     2.510400     1
   NG2S2    CG2O1    CG314    NG3P3     9     0.000000     2.510400     1
   NG2S2    CG2O1    CG314     HGA1     9     0.000000     0.000000     1
   NG2S2    CG2O1    CG314     HGP5     9   180.000000     1.045582     2
   NG2S2    CG2O1    CG314     HGP5     9   180.000000     1.943886     3
   NG2S2    CG2O1    CG321   CG2R61     9   180.000000     0.878640     1
   NG2S2    CG2O1    CG321   CG2R61     9     0.000000     2.301200     3
   NG2S2    CG2O1    CG321   CG2R62     9   180.000000     0.878640     1
   NG2S2    CG2O1    CG321   CG2R62     9     0.000000     2.301200     3
   NG2S2    CG2O1    CG321    CG311     9   180.000000     0.209200     6
   NG2S2    CG2O1    CG321    CG314     9   180.000000     0.209200     6
   NG2S2    CG2O1    CG321    CG321     9   180.000000     0.209200     6
   NG2S2    CG2O1    CG321    CG331     9   180.000000     0.209200     6
   NG2S2    CG2O1    CG321    NG2S1     9     0.000000     2.510400     1
   NG2S2    CG2O1    CG321    SG311     9     0.000000     8.073446     1
   NG2S2    CG2O1    CG321    SG311     9   180.000000     3.640080     2
   NG2S2    CG2O1    CG321    SG311     9     0.000000     4.689009     3
   NG2S2    CG2O1    CG321     HGA2     9   180.000000     0.000000     3
   NG2S2    CG2O1    CG324    NG3P3     9     0.000000     1.673600     1
   NG2S2    CG2O1    CG324     HGA2     9   180.000000     0.000000     3
   NG2S2    CG2O1    CG331     HGA3     9     0.000000     0.000000     3
   NG2S2    CG2O1   CG3C41   CG3C41     9     0.000000     2.426720     1
   NG2S2    CG2O1   CG3C41   CG3C41     9     0.000000     3.932960     2
   NG2S2    CG2O1   CG3C41   CG3C41     9     0.000000     2.468560     6
   NG2S2    CG2O1   CG3C41     HGA1     9   180.000000     0.000000     1
   NG2S2    CG2O1   CG3C41     HGA1     9     0.000000     0.000000     2
   NG2S2    CG2O1   CG3C51   CG2RC0     9     0.000000     1.380720     1
   NG2S2    CG2O1   CG3C51   CG2RC0     9     0.000000     0.167360     2
   NG2S2    CG2O1   CG3C51   CG3C50     9     0.000000     1.673600     1
   NG2S2    CG2O1   CG3C51   CG3C50     9     0.000000     2.510400     2
   NG2S2    CG2O1   CG3C51   CG3C52     9     0.000000     1.673600     1
   NG2S2    CG2O1   CG3C51   CG3C52     9     0.000000     2.510400     2
   NG2S2    CG2O1   CG3C51    NG2S0     9     0.000000     1.255200     1
   NG2S2    CG2O1   CG3C51    NG2S0     9     0.000000    -1.255200     4
   NG2S2    CG2O1   CG3C51   NG3C51     9   180.000000     2.468560     1
   NG2S2    CG2O1   CG3C51   NG3C51     9   180.000000    12.049920     2
   NG2S2    CG2O1   CG3C51   NG3C51     9   180.000000     1.757280     3
   NG2S2    CG2O1   CG3C51   OG3C51     9     0.000000     0.460240     1
   NG2S2    CG2O1   CG3C51   OG3C51     9   180.000000     2.384880     2
   NG2S2    CG2O1   CG3C51   OG3C51     9   180.000000     0.836800     3
   NG2S2    CG2O1   CG3C51     HGA1     9   180.000000     1.673600     1
   NG2S2    CG2O1   CG3C51     HGA1     9     0.000000     2.510400     2
   NG2S2    CG2O1   CG3C53   CG3C52     9     0.000000     1.673600     1
   NG2S2    CG2O1   CG3C53   CG3C52     9     0.000000     2.510400     2
   NG2S2    CG2O1   CG3C53    NG3P2     9     0.000000     1.255200     1
   NG2S2    CG2O1   CG3C53     HGA1     9   180.000000     1.673600     1
   NG2S2    CG2O1   CG3C53     HGA1     9     0.000000     2.510400     2
   NG2S2    CG2O6   NG2R51   CG2R51     9   180.000000     5.983120     2
   NG2S2    CG2O6   NG2R51   CG2R51     9     0.000000     0.753120     4
   NG2S2    CG2O6   NG2R51   NG2R50     9   180.000000    11.715200     2
   NG2S2    CG2O6   NG2R51   NG2R50     9   180.000000     1.087840     3
   NG2S2    CG2O6    NG2S0    CG321     9   180.000000     0.836800     2
   NG2S2    CG2O6    NG2S0   CG3C41     9   180.000000     0.836800     2
   NG2S2    CG2O6    NG2S0   CG3C50     9   180.000000     8.242480     2
   NG2S2    CG2O6    NG2S0   CG3C50     9     0.000000     0.627600     3
   NG2S2    CG2O6    NG2S0   CG3RC1     9   180.000000     8.619040     2
   NG2S2    CG2O6    NG2S0   CG3RC1     9     0.000000     3.932960     3
   NG2S2    CG2O6    NG2S0   CG3RC1     9     0.000000     6.945440     6
   NG2S2    CG2O6    NG2S0   NG2R50     9   180.000000    31.965760     1
   NG2S2    CG2O6    NG2S0   NG2R50     9   180.000000     6.861760     2
   NG2S2    CG2O6    NG2S1    CG321     9     0.000000     6.694400     1
   NG2S2    CG2O6    NG2S1    CG321     9   180.000000    10.460000     2
   NG2S2    CG2O6    NG2S1    CG331     9     0.000000     6.694400     1
   NG2S2    CG2O6    NG2S1    CG331     9   180.000000    10.460000     2
   NG2S2    CG2O6    NG2S1     HGP1     9   180.000000    16.736000     2
   NG2S2    CG2O6    NG2S2     HGP1     9   180.000000     6.276000     2
   NG2S2    CG2O6    SG311    CG321     9   180.000000     7.759228     2
   SG2D1    CG2O1   CG2R61   CG2R61     9     0.000000     0.418400     2
   SG2D1    CG2O1   CG2R61   NG2R60     9   180.000000     3.263520     2
   SG2D1    CG2O1   CG2R61   NG2R60     9     0.000000     2.928800     3
   SG2D1    CG2O1    CG301    CG321     9     0.000000     0.000000     1
   SG2D1    CG2O1    CG301    CG321     9   180.000000     0.000000     2
   SG2D1    CG2O1    CG301    CG321     9   180.000000     0.251040     6
   SG2D1    CG2O1    CG321    CG301     9   180.000000    14.476640     1
   SG2D1    CG2O1    CG321    CG301     9   180.000000    13.095920     2
   SG2D1    CG2O1    CG321    CG321     9     0.000000     0.125520     1
   SG2D1    CG2O1    CG321    CG321     9   180.000000     3.849280     2
   SG2D1    CG2O1    CG321    NG2S1     9     0.000000     2.379022     1
   SG2D1    CG2O1    CG321    NG2S1     9     0.000000     0.874456     2
   SG2D1    CG2O1    CG321     HGA2     9   180.000000     0.809604     3
   SG2D1    CG2O1    NG2D1    NG2D1     9   180.000000    12.635680     1
   SG2D1    CG2O1    NG2D1    NG2D1     9   180.000000     2.050160     2
   SG2D1    CG2O1    NG2D1    NG2D1     9   180.000000     0.585760     3
   SG2D1    CG2O1    NG2D1    NG2D1     9   180.000000     2.468560     4
   SG2D1    CG2O1    NG2D1    NG2D1     9     0.000000     0.083680     5
   SG2D1    CG2O1    NG2D1    NG2D1     9   180.000000     0.125520     6
   SG2D1    CG2O1    NG2S0   CG2D1O     9     0.000000     2.050160     1
   SG2D1    CG2O1    NG2S0   CG2D1O     9     0.000000     1.338880     2
   SG2D1    CG2O1    NG2S0   CG2D2O     9     0.000000     2.050160     1
   SG2D1    CG2O1    NG2S0   CG2D2O     9     0.000000     1.338880     2
   SG2D1    CG2O1    NG2S0    CG331     9     0.000000     5.773920     1
   SG2D1    CG2O1    NG2S0    CG331     9   180.000000    16.568640     2
   SG2D1    CG2O1    NG2S1    CG2O6     9     0.000000     2.719600     1
   SG2D1    CG2O1    NG2S1    CG2O6     9     0.000000     0.000000     2
   SG2D1    CG2O1    NG2S1    CG331     9     0.000000     6.552981     1
   SG2D1    CG2O1    NG2S1    CG331     9   180.000000    12.952827     2
   SG2D1    CG2O1    NG2S1   CG3C50     9   180.000000     1.338880     1
   SG2D1    CG2O1    NG2S1   CG3C50     9   180.000000     9.874240     2
   SG2D1    CG2O1    NG2S1     HGP1     9   180.000000     4.939212     2
   SG2D1    CG2O1    NG2S2     HGP1     9   180.000000     0.000000     2
   SG2D1    CG2O1        N      CP1     9   180.000000    11.506000     2
   SG2D1    CG2O1        N      CP1     9     0.000000     1.255200     4
   SG2D1    CG2O1        N      CP3     9   180.000000    11.506000     2
   SG2D1    CG2O1        N      CP3     9     0.000000     1.255200     4
   SG2D1    CG2O1      NH1      CT2     9   180.000000    10.460000     2
   SG2D1    CG2O2   CG2R61   CG2R61     9   180.000000     9.455840     2
   SG2D1    CG2O2   CG2R61   CG2R61     9   180.000000     0.167360     4
   SG2D1    CG2O2   CG2R62   CG2R62     9   180.000000     4.686080     2
   SG2D1    CG2O2   CG2R62   CG2R62     9     0.000000     0.251040     4
   SG2D1    CG2O2    SG311     HGP3     9   180.000000     0.167360     1
   SG2D1    CG2O2    SG311     HGP3     9     0.000000     0.000000     2
   SG2D1    CG2O5    CG311   CG2R61     9   180.000000     0.000000     1
   SG2D1    CG2O5    CG311   CG2R61     9   180.000000     3.305360     2
   SG2D1    CG2O5    CG311   CG2R61     9     0.000000     1.715440     3
   SG2D1    CG2O5    CG311   CG2R61     9   180.000000     3.807440     4
   SG2D1    CG2O5    CG311    OG311     9     0.000000    10.543680     1
   SG2D1    CG2O5    CG311    OG311     9   180.000000     8.368000     2
   SG2D1    CG2O5    CG311    OG311     9   180.000000    10.711040     3
   SG2D1    CG2O5    CG311     HGA1     9     0.000000     0.000000     3
   SG2D1    CG2O6    NG2D1   CG2DC1     9     0.000000     0.376560     1
   SG2D1    CG2O6    NG2D1   CG2DC1     9   180.000000     2.886960     2
   SG2D1    CG2O6    NG2D1   CG2DC1     9   180.000000     1.840960     3
   SG2D1    CG2O6    NG2D1   CG2DC1     9   180.000000     0.418400     4
   SG2D1    CG2O6    NG2D1   CG2DC1     9     0.000000     0.167360     5
   SG2D1    CG2O6    NG2D1   CG2DC1     9     0.000000     0.125520     6
   SG2D1    CG2O6    NG2D1   CG2DC2     9     0.000000     0.376560     1
   SG2D1    CG2O6    NG2D1   CG2DC2     9   180.000000     2.886960     2
   SG2D1    CG2O6    NG2D1   CG2DC2     9   180.000000     1.840960     3
   SG2D1    CG2O6    NG2D1   CG2DC2     9   180.000000     0.418400     4
   SG2D1    CG2O6    NG2D1   CG2DC2     9     0.000000     0.167360     5
   SG2D1    CG2O6    NG2D1   CG2DC2     9     0.000000     0.125520     6
   SG2D1    CG2O6   NG2R51   CG2R51     9   180.000000     7.070960     2
   SG2D1    CG2O6   NG2R51   CG2R51     9   180.000000     3.598240     3
   SG2D1    CG2O6   NG2R51   NG2R50     9     0.000000     9.874240     1
   SG2D1    CG2O6   NG2R51   NG2R50     9   180.000000     8.033280     2
   SG2D1    CG2O6   NG2R51   NG2R50     9   180.000000     1.087840     3
   SG2D1    CG2O6    NG2S0   CG2R64     9     0.000000     1.255200     1
   SG2D1    CG2O6    NG2S0   CG2R64     9   180.000000     2.886960     2
   SG2D1    CG2O6    NG2S0    CG321     9   180.000000     0.460240     1
   SG2D1    CG2O6    NG2S0    CG321     9   180.000000    13.932720     2
   SG2D1    CG2O6    NG2S0    CG331     9     0.000000     2.928800     1
   SG2D1    CG2O6    NG2S0    CG331     9   180.000000    14.058240     2
   SG2D1    CG2O6    NG2S0    NG2S1     9     0.000000     0.083680     1
   SG2D1    CG2O6    NG2S0    NG2S1     9   180.000000    13.012240     2
   SG2D1    CG2O6    NG2S1    CG2O1     9     0.000000     3.054320     1
   SG2D1    CG2O6    NG2S1    CG2O1     9   180.000000     8.953760     2
   SG2D1    CG2O6    NG2S1   CG2R61     9     0.000000     0.083680     1
   SG2D1    CG2O6    NG2S1   CG2R61     9     0.000000     0.000000     2
   SG2D1    CG2O6    NG2S1    CG301     9     0.000000    11.296800     1
   SG2D1    CG2O6    NG2S1    CG301     9   180.000000     4.602400     2
   SG2D1    CG2O6    NG2S1    CG311     9     0.000000    11.296800     1
   SG2D1    CG2O6    NG2S1    CG311     9   180.000000     4.602400     2
   SG2D1    CG2O6    NG2S1    CG321     9     0.000000    11.286758     1
   SG2D1    CG2O6    NG2S1    CG321     9   180.000000     4.596961     2
   SG2D1    CG2O6    NG2S1    CG331     9     0.000000    11.286758     1
   SG2D1    CG2O6    NG2S1    CG331     9   180.000000     4.596961     2
   SG2D1    CG2O6    NG2S1    NG2S0     9     0.000000     1.004160     1
   SG2D1    CG2O6    NG2S1    NG2S0     9   180.000000    34.601680     2
   SG2D1    CG2O6    NG2S1    NG2S1     9     0.000000     9.079280     1
   SG2D1    CG2O6    NG2S1    NG2S1     9   180.000000     4.937120     2
   SG2D1    CG2O6    NG2S1    NG2S1     9     0.000000     0.125520     3
   SG2D1    CG2O6    NG2S1     HGP1     9   180.000000     0.005858     2
   SG2D1    CG2O6    NG2S2     HGP1     9   180.000000     0.012134     2
   SG2D1    CG2O6   OG3R60    CG311     9     0.000000     0.418400     1
   SG2D1    CG2O6   OG3R60    CG311     9   180.000000    15.062400     2
   SG2D1    CG2O6    SG311    CG321     9   180.000000     0.418400     1
   SG2D1    CG2O6    SG311    CG321     9   180.000000     8.911920     2
   SG2D1    CG2O6    SG311    CG331     9   180.000000     0.418400     1
   SG2D1    CG2O6    SG311    CG331     9   180.000000     8.911920     2
   SG2D1   CG2R53   CG3C51    CG2O2     9   180.000000     3.556400     3
   SG2D1   CG2R53   CG3C51   CG2R53     9     0.000000     0.209200     2
   SG2D1   CG2R53   CG3C51   CG2R53     9     0.000000     3.389040     3
   SG2D1   CG2R53   CG3C51     HGA1     9     0.000000     0.000000     3
   SG2D1   CG2R53   CG3C52   CG2RC0     9   180.000000     2.886960     2
   SG2D1   CG2R53   CG3C52   CG2RC0     9     0.000000     0.418400     3
   SG2D1   CG2R53   CG3C52     HGA2     9     0.000000     0.000000     3
   SG2D1   CG2R53   NG2R50   NG2R50     9     0.000000     0.334720     2
   SG2D1   CG2R53   NG2R51   CG2R51     9   180.000000     6.359680     2
   SG2D1   CG2R53   NG2R51    CG331     9     0.000000     3.305360     2
   SG2D1   CG2R53   NG2R51     HGP1     9     0.000000     1.757280     2
   SG2D1   CG2R53   NG2R53   CG2R53     9   180.000000     6.276000     2
   SG2D1   CG2R53   NG2R53   CG2RC0     9   180.000000     6.276000     2
   SG2D1   CG2R53   NG2R53    CG311     9   180.000000     6.276000     2
   SG2D1   CG2R53   NG2R53    CG321     9   180.000000     6.276000     2
   SG2D1   CG2R53   NG2R53    CG331     9   180.000000     6.276000     2
   SG2D1   CG2R53   NG2R53   CG3C51     9   180.000000    30.041120     2
   SG2D1   CG2R53   NG2R53   CG3C52     9   180.000000     0.920480     2
   SG2D1   CG2R53   NG2R53   CG3C52     9   180.000000     2.719600     4
   SG2D1   CG2R53   NG2R53   NG3C51     9     0.000000     1.464400     2
   SG2D1   CG2R53   NG2R53     HGP1     9   180.000000     4.184000     2
   SG2D1   CG2R53    NG3P0    CG324     9     0.000000     1.338880     3
   SG2D1   CG2R53    NG3P0    CG324     9   180.000000     0.000000     6
   SG2D1   CG2R53    NG3P0   CG3C53     9   180.000000     2.677760     3
   SG2D1   CG2R53    NG3P0   CG3C53     9   180.000000     0.502080     4
   SG2D1   CG2R53    SG311   CG251O     9   180.000000     1.046000     1
   SG2D1   CG2R53    SG311   CG251O     9   180.000000     2.510400     2
   SG2D1   CG2R53    SG311   CG252O     9   180.000000     1.046000     1
   SG2D1   CG2R53    SG311   CG252O     9   180.000000     2.510400     2
   SG2D1   CG2R53    SG311   CG3C52     9     0.000000     0.000000     1
   SG2D1   CG2R53    SG311   CG3C52     9   180.000000    11.673360     2
   SG2D1   CG2R53    SG311   NG2R53     9   180.000000    19.079040     1
   SG2D1   CG2R53    SG311   NG2R53     9   180.000000     0.794960     2
   SG2D1   CG2R63   CG2R64   NG2R60     9     0.000000     1.924640     2
   SG2D1   CG2R63   CG2R64    NG301     9   180.000000    18.911680     2
   SG2D1   CG2R63   CG2R66   CG2R61     9   180.000000    18.828000     2
   SG2D1   CG2R63   CG2R66     FGR1     9   180.000000    11.631520     2
   SG2D1   CG2R63   CG2RC0   CG2R51     9   180.000000     6.066800     2
   SG2D1   CG2R63   CG2RC0   NG2RC0     9   180.000000     7.991440     2
   SG2D1   CG2R63   NG2R61   CG2R61     9   180.000000     6.694400     2
   SG2D1   CG2R63   NG2R61   CG2R62     9   180.000000     6.694400     2
   SG2D1   CG2R63   NG2R61   CG2R63     9   180.000000     3.765600     2
   SG2D1   CG2R63   NG2R61   CG2R64     9   180.000000    58.576000     2
   SG2D1   CG2R63   NG2R61    CG331     9   180.000000    29.288000     2
   SG2D1   CG2R63   NG2R61     HGP1     9   180.000000     2.092000     2
   SG2D1   CG2R63   NG2R61     CN7B     9   180.000000    46.024000     2
   SG2D1   CG2R63   NG2R62   CG2R61     9   180.000000     6.694400     2
   SG2D1   CG2R63   NG2R62   CG2R64     9   180.000000     6.694400     2
   SG2D1   CG2R63   NG2R67   CG2R63     9   180.000000     3.765600     2
   SG2D1   CG2R63   NG2R67   CG2R64     9   180.000000     3.765600     2
   SG2D1   CG2R63   NG2R67   CG2R67     9   180.000000     6.694400     2
   SG2D1   CG2R63   NG2RC0   CG2R51     9   180.000000     6.945440     2
   SG2D1   CG2R63   NG2RC0   CG2RC0     9     0.000000     0.000000     2
   SG2D1   CG2R63   OG3R60   CG2R61     9   180.000000    10.460000     2
   SG2D1   CG2R71   CG2R71    SG311     9   180.000000    26.066320     2
   SG2D1   CG2R71   CG2R71    HGR71     9   180.000000     0.502080     2
  CG3C41    CG2O1    NG2S0   CG3C52     9   180.000000    11.506000     2
  CG3C41    CG2O1    NG2S0   CG3C52     9     0.000000     1.255200     4
  CG3C41    CG2O1    NG2S0   CG3RC1     9   180.000000    11.506000     2
  CG3C41    CG2O1    NG2S0   CG3RC1     9     0.000000     1.255200     4
  CG3C41    CG2O1    NG2S2     HGP1     9   180.000000    10.460000     2
  CG3C41    CG2O2    OG311     HGP1     9   180.000000     8.577200     2
  CG3C41    CG2O4   CG3C41   CG2R61     9     0.000000     9.121120     3
  CG3C41    CG2O4   CG3C41   CG2R61     9     0.000000     3.430880     4
  CG3C41    CG2O4   CG3C41    CG321     9     0.000000     2.217520     2
  CG3C41    CG2O4   CG3C41    CG321     9     0.000000     4.016640     3
  CG3C41    CG2O4   CG3C41    CG324     9     0.000000     6.108640     3
  CG3C41    CG2O4   CG3C41   CG3C41     9     0.000000     0.083680     2
  CG3C41    CG2O4   CG3C41   CG3C41     9     0.000000     8.116960     3
  CG3C41    CG2O4   CG3C41   OG3C51     9     0.000000     0.398735     3
  CG3C41    CG2O4   CG3C41     HGA1     9   180.000000     0.167360     3
  CG3C41    CG2O4   CG3C41     HGA2     9   180.000000     0.146440     3
  CG3C41    CG2O4   CG3RC1   CG3C54     9   180.000000     5.815760     2
  CG3C41    CG2O4   CG3RC1   CG3C54     9     0.000000     8.075120     3
  CG3C41    CG2O4   CG3RC1   CG3C54     9   180.000000     0.585760     6
  CG3C41    CG2O4   CG3RC1   CG3RC1     9   180.000000    26.735760     2
  CG3C41    CG2O4   CG3RC1   CG3RC1     9   180.000000     0.585760     3
  CG3C41    CG2O4   CG3RC1     HGA1     9   180.000000     0.000000     3
  CG3C41    CG2O4   OG3C51   CG3C41     9   180.000000     0.764835     2
  CG3C41   CG2R51   CG2R51   NG2R50     9   180.000000    12.552000     2
  CG3C41   CG2R51   NG2R51   CG2R53     9   180.000000    12.552000     2
  CG3C41   CG2R51   NG2R51     HGP1     9   180.000000     4.184000     2
  CG3C41   CG2R52    CG331     HGA3     9     0.000000     1.464400     3
  CG3C41   CG2R52   NG2R50   NG2R53     9   180.000000    70.751440     2
  CG3C41   CG2R53   NG2R43   CG2D1O     9     0.000000     0.209200     2
  CG3C41   CG2R53   NG2R43   CG2D2O     9     0.000000     0.209200     2
  CG3C41   CG2R53   NG2R43   CG2R61     9   180.000000    12.426480     2
  CG3C41   CG2R53   NG2R43    CG321     9   180.000000    20.376080     2
  CG3C41   CG2R53   NG2R43    CG331     9     0.000000     2.008320     2
  CG3C41   CG2R53   NG2R43   CG3C41     9   180.000000     6.276000     2
  CG3C41   CG2R53   NG2R43   CG3RC1     9     0.000000     0.125520     2
  CG3C41   CG2R53   NG2R43     HGP1     9     0.000000     0.000000     1
  CG3C41   CG2R53   NG2R50   CG2R51     9   180.000000    17.405440     2
  CG3C41   CG2R53   NG2R50   CG2RC0     9   180.000000    20.334240     2
  CG3C41   CG2R53   NG2R51   CG2RC0     9   180.000000     9.874240     2
  CG3C41   CG2R53   NG2R51     HGP1     9   180.000000     6.359680     2
  CG3C41   CG2R53   NG2R52   CG2RC0     9   180.000000     8.368000     2
  CG3C41   CG2R53   NG2R52     HGP2     9     0.000000     0.376560     2
  CG3C41   CG2R53   NG2R53   CG2R53     9   180.000000     5.857600     2
  CG3C41   CG2R53   NG2R53    CG331     9   180.000000     5.983120     2
  CG3C41   CG2R53   NG2R53   NG2R50     9   180.000000    24.350880     2
  CG3C41   CG2R53   SG2R50   CG2R51     9   180.000000    17.447280     2
  CG3C41   CG2R61   CG2R61    HGR61     9   180.000000    10.041600     2
  CG3C41   CG2R61   CG2R61    HGR62     9   180.000000    10.041600     2
  CG3C41   CG2R61   CG2R66   CG2R61     9   180.000000    12.970400     2
  CG3C41   CG2R61   CG2R66     FGR1     9   180.000000    18.828000     2
  CG3C41   CG2R61   NG2R60   CG2R61     9   180.000000    12.970400     2
  CG3C41   CG2R62   CG2R62    HGR62     9   180.000000    16.736000     2
  CG3C41   CG2R62   NG2R62   CG2R64     9   180.000000     9.832400     2
  CG3C41   CG2R64   NG2R62   CG2R61     9   180.000000    23.304880     2
  CG3C41   CG2RC0   CG2RC0   CG3C41     9   180.000000    12.552000     2
  CG3C41    CG301    CG321    CG324     9   180.000000     5.815760     3
  CG3C41    CG301    CG321     HGA2     9     0.000000     0.836800     3
  CG3C41    CG301    OG311     HGP1     9     0.000000     4.727920     1
  CG3C41    CG301    OG311     HGP1     9     0.000000     0.585760     2
  CG3C41    CG301    OG311     HGP1     9     0.000000     1.004160     3
  CG3C41    CG311    CG321    CG324     9     0.000000     0.836800     3
  CG3C41    CG311    CG321     HGA2     9     0.000000     0.836800     3
  CG3C41    CG311    CG331     HGA3     9     0.000000     0.669440     3
  CG3C41    CG321    CG321    NG301     9   180.000000     0.669440     1
  CG3C41    CG321    CG321    NG301     9     0.000000     1.631760     2
  CG3C41    CG321    CG321     HGA2     9     0.000000     2.092000     3
  CG3C41    CG321    NG2S0    CG2O6     9     0.000000     0.000000     3
  CG3C41    CG321    NG2S0    CG331     9   180.000000     0.418400     3
  CG3C41    CG321    NG301    CG321     9   180.000000     5.941280     1
  CG3C41    CG321    NG301    CG321     9     0.000000     3.430880     2
  CG3C41    CG321    NG301    CG321     9     0.000000     4.267680     3
  CG3C41    CG321    NG301    CG331     9   180.000000     5.941280     1
  CG3C41    CG321    NG301    CG331     9     0.000000     3.430880     2
  CG3C41    CG321    NG301    CG331     9     0.000000     4.267680     3
  CG3C41    CG321    NG311    CG321     9   180.000000     0.292880     1
  CG3C41    CG321    NG311    CG321     9   180.000000     1.004160     2
  CG3C41    CG321    NG311    CG321     9   180.000000     0.000000     3
  CG3C41    CG321    NG311    CG321     9     0.000000     3.012480     4
  CG3C41    CG321    NG311   HGPAM1     9     0.000000     1.255200     3
  CG3C41    CG324    NG3P1    CG324     9     0.000000     0.418400     3
  CG3C41    CG324    NG3P1    CG334     9     0.000000     0.418400     3
  CG3C41    CG324    NG3P1     HGP2     9     0.000000     0.418400     3
  CG3C41    CG324    NG3P2    CG324     9     0.000000     1.673600     1
  CG3C41    CG324    NG3P2    CG324     9     0.000000     1.046000     2
  CG3C41    CG324    NG3P2    CG324     9     0.000000     2.510400     3
  CG3C41    CG324    NG3P2     HGP2     9     0.000000     0.418400     3
  CG3C41   CG3C41   CG3C41   CG3C41     9     0.000000     5.983120     3
  CG3C41   CG3C41   CG3C41   NG2R50     9     0.000000     5.439200     2
  CG3C41   CG3C41   CG3C41   NG2R50     9   180.000000     2.092000     3
  CG3C41   CG3C41   CG3C41   NG2R51     9     0.000000    13.221440     3
  CG3C41   CG3C41   CG3C41   NG2R51     9     0.000000     0.418400     6
  CG3C41   CG3C41   CG3C41   NG2R53     9     0.000000    14.853200     3
  CG3C41   CG3C41   CG3C41   NG2R53     9   180.000000     5.606560     6
  CG3C41   CG3C41   CG3C41    NG2S1     9     0.000000     2.133840     3
  CG3C41   CG3C41   CG3C41    NG2S1     9   180.000000     4.351360     4
  CG3C41   CG3C41   CG3C41    NG301     9     0.000000     0.920480     2
  CG3C41   CG3C41   CG3C41    NG301     9     0.000000    12.677520     3
  CG3C41   CG3C41   CG3C41    NG311     9     0.000000     0.000000     2
  CG3C41   CG3C41   CG3C41    NG311     9     0.000000    20.543440     3
  CG3C41   CG3C41   CG3C41    NG3P1     9     0.000000    24.601920     3
  CG3C41   CG3C41   CG3C41    NG3P1     9     0.000000     3.849280     4
  CG3C41   CG3C41   CG3C41    NG3P2     9     0.000000     0.000000     2
  CG3C41   CG3C41   CG3C41    NG3P2     9     0.000000     0.083680     3
  CG3C41   CG3C41   CG3C41    NG3P3     9   180.000000     3.430880     3
  CG3C41   CG3C41   CG3C41    NG3P3     9     0.000000     0.167360     4
  CG3C41   CG3C41   CG3C41    OG301     9     0.000000     0.041840     3
  CG3C41   CG3C41   CG3C41    OG301     9   180.000000     0.125520     4
  CG3C41   CG3C41   CG3C41   OG3C51     9     0.000000     0.000000     3
  CG3C41   CG3C41   CG3C41   OG3C61     9     0.000000     4.476880     3
  CG3C41   CG3C41   CG3C41   OG3C61     9   180.000000     2.050160     4
  CG3C41   CG3C41   CG3C41    SG311     9     0.000000     0.000000     3
  CG3C41   CG3C41   CG3C41    SG311     9   180.000000     0.292880     6
  CG3C41   CG3C41   CG3C41    SG3O2     9     0.000000     0.083680     2
  CG3C41   CG3C41   CG3C41    SG3O2     9     0.000000     3.054320     3
  CG3C41   CG3C41   CG3C41     HGA1     9     0.000000     2.384880     3
  CG3C41   CG3C41   CG3C41     HGA2     9     0.000000     2.384880     3
  CG3C41   CG3C41   CG3C51    CG322     9     0.000000     2.217520     3
  CG3C41   CG3C41   CG3C51    CG322     9     0.000000     0.334720     6
  CG3C41   CG3C41   CG3C51   CG3C52     9   180.000000     1.422560     3
  CG3C41   CG3C41   CG3C51   CG3C52     9   180.000000     0.627600     6
  CG3C41   CG3C41   CG3C51     HGA1     9     0.000000     0.000000     3
  CG3C41   CG3C41   CG3C52   CG3C52     9     0.000000     1.506240     3
  CG3C41   CG3C41   CG3C52   CG3C52     9   180.000000     1.966480     4
  CG3C41   CG3C41   CG3C52   NG2R53     9   180.000000     2.677760     3
  CG3C41   CG3C41   CG3C52   NG2R53     9   180.000000     3.640080     4
  CG3C41   CG3C41   CG3C52     HGA2     9     0.000000     0.000000     3
  CG3C41   CG3C41   CG3RC1    CG311     9     0.000000     0.083680     2
  CG3C41   CG3C41   CG3RC1    CG311     9     0.000000     2.343040     3
  CG3C41   CG3C41   CG3RC1    CG321     9   180.000000     4.016640     3
  CG3C41   CG3C41   CG3RC1    CG321     9   180.000000     0.753120     6
  CG3C41   CG3C41   CG3RC1    CG324     9   180.000000     4.142160     2
  CG3C41   CG3C41   CG3RC1    CG324     9     0.000000     4.518720     3
  CG3C41   CG3C41   CG3RC1   CG3C52     9     0.000000     9.874240     2
  CG3C41   CG3C41   CG3RC1   CG3C52     9   180.000000     0.083680     3
  CG3C41   CG3C41   CG3RC1   CG3RC1     9     0.000000     0.000000     2
  CG3C41   CG3C41   CG3RC1   CG3RC1     9     0.000000     5.857600     3
  CG3C41   CG3C41   CG3RC1     HGA1     9     0.000000     0.000000     3
  CG3C41   CG3C41   NG2R43   CG2R53     9     0.000000    12.552000     3
  CG3C41   CG3C41   NG2R43   CG2R61     9   180.000000     0.418400     2
  CG3C41   CG3C41   NG2R43   CG2R61     9   180.000000     2.343040     3
  CG3C41   CG3C41   NG2R43    CG331     9   180.000000     2.970640     2
  CG3C41   CG3C41   NG2R43    CG331     9     0.000000     7.070960     3
  CG3C41   CG3C41   NG2R43     HGP1     9   180.000000     0.836800     3
  CG3C41   CG3C41   NG2R50   CG2R53     9     0.000000    11.966240     2
  CG3C41   CG3C41   NG2R50   CG2R53     9   180.000000     1.548080     3
  CG3C41   CG3C41   NG2R51   CG2R53     9     0.000000     7.573040     3
  CG3C41   CG3C41   NG2R51   CG2R53     9     0.000000     1.297040     6
  CG3C41   CG3C41   NG2R51   CG2RC0     9   180.000000     9.288480     1
  CG3C41   CG3C41   NG2R51   CG2RC0     9     0.000000     6.401520     3
  CG3C41   CG3C41   NG2R51   CG2RC0     9   180.000000     0.920480     6
  CG3C41   CG3C41   NG2R53   CG2R53     9   180.000000     0.334720     3
  CG3C41   CG3C41   NG2R53     HGP1     9     0.000000     0.251040     1
  CG3C41   CG3C41   NG2R53     HGP1     9   180.000000     1.799120     3
  CG3C41   CG3C41    NG2S1    CG2O1     9   180.000000     3.389040     3
  CG3C41   CG3C41    NG2S1    CG2O1     9     0.000000     1.589920     4
  CG3C41   CG3C41    NG2S1     HGP1     9     0.000000     2.050160     1
  CG3C41   CG3C41    NG2S1     HGP1     9     0.000000     0.418400     4
  CG3C41   CG3C41    NG301    CG331     9     0.000000     1.799120     1
  CG3C41   CG3C41    NG301    CG331     9     0.000000     7.447520     3
  CG3C41   CG3C41    NG301    CG331     9     0.000000     9.079280     4
  CG3C41   CG3C41    NG301   CG3C41     9     0.000000     0.251040     2
  CG3C41   CG3C41    NG301   CG3C41     9     0.000000    16.526800     3
  CG3C41   CG3C41    NG311    CG321     9   180.000000     4.769760     1
  CG3C41   CG3C41    NG311    CG321     9   180.000000     0.292880     3
  CG3C41   CG3C41    NG311    CG321     9     0.000000     1.046000     4
  CG3C41   CG3C41    NG311   CG3C41     9   180.000000     0.000000     1
  CG3C41   CG3C41    NG311   CG3C41     9     0.000000     0.000000     2
  CG3C41   CG3C41    NG311   CG3C41     9     0.000000    11.715200     3
  CG3C41   CG3C41    NG311   HGPAM1     9   180.000000     6.108640     2
  CG3C41   CG3C41    NG311   HGPAM1     9     0.000000     1.004160     3
  CG3C41   CG3C41   NG3C51    CG331     9   180.000000     0.543920     1
  CG3C41   CG3C41   NG3C51    CG331     9   180.000000     4.435040     3
  CG3C41   CG3C41   NG3C51   CG3C52     9     0.000000     0.251040     1
  CG3C41   CG3C41   NG3C51   CG3C52     9   180.000000     4.769760     3
  CG3C41   CG3C41   NG3C51   CG3C52     9   180.000000     8.619040     4
  CG3C41   CG3C41    NG3P1    CG324     9   180.000000    13.346960     1
  CG3C41   CG3C41    NG3P1    CG324     9     0.000000     1.380720     3
  CG3C41   CG3C41    NG3P1    CG334     9   180.000000     5.188160     1
  CG3C41   CG3C41    NG3P1    CG334     9     0.000000     0.627600     3
  CG3C41   CG3C41    NG3P1     HGP2     9   180.000000     0.167360     3
  CG3C41   CG3C41    NG3P2   CG3C41     9   180.000000    23.681440     2
  CG3C41   CG3C41    NG3P2   CG3C41     9     0.000000     2.510400     3
  CG3C41   CG3C41    NG3P2     HGP2     9   180.000000     5.732080     2
  CG3C41   CG3C41    NG3P2     HGP2     9     0.000000     7.238320     3
  CG3C41   CG3C41    NG3P3     HGP2     9     0.000000     0.962320     3
  CG3C41   CG3C41    OG301   CG2R61     9     0.000000     0.460240     1
  CG3C41   CG3C41    OG301   CG2R61     9   180.000000     2.803280     3
  CG3C41   CG3C41    OG301   CG2R61     9   180.000000     0.000000     6
  CG3C41   CG3C41    OG311     HGP1     9     0.000000     5.564720     1
  CG3C41   CG3C41    OG311     HGP1     9     0.000000     0.167360     2
  CG3C41   CG3C41    OG311     HGP1     9     0.000000     0.083680     3
  CG3C41   CG3C41    OG311     HGP1     9     0.000000     0.209200     4
  CG3C41   CG3C41   OG3C51    CG2O4     9   180.000000     0.916714     2
  CG3C41   CG3C41   OG3C51   CG2R53     9   180.000000     4.435040     2
  CG3C41   CG3C41   OG3C51   CG2R53     9   180.000000     0.083680     3
  CG3C41   CG3C41   OG3C51   CG3C41     9     0.000000     2.092000     3
  CG3C41   CG3C41   OG3C51   CG3C52     9     0.000000     2.552240     3
  CG3C41   CG3C41   OG3C51   CG3C52     9     0.000000     0.920480     4
  CG3C41   CG3C41   OG3C51   NG3C51     9   180.000000     2.468560     2
  CG3C41   CG3C41   OG3C51   NG3C51     9     0.000000     1.882800     3
  CG3C41   CG3C41   OG3C61    CG311     9   180.000000     1.631760     1
  CG3C41   CG3C41   OG3C61    CG311     9     0.000000     9.079280     3
  CG3C41   CG3C41   OG3C61    CG311     9     0.000000     2.426720     4
  CG3C41   CG3C41   OG3R60   CG2R61     9     0.000000     7.196480     1
  CG3C41   CG3C41   OG3R60   CG2R61     9     0.000000     0.669440     3
  CG3C41   CG3C41   OG3R60   CG2R61     9     0.000000     0.669440     4
  CG3C41   CG3C41    SG311    CG321     9   180.000000     0.251040     1
  CG3C41   CG3C41    SG311    CG321     9     0.000000     1.464400     3
  CG3C41   CG3C41    SG311    CG321     9     0.000000     0.041840     6
  CG3C41   CG3C41    SG3O2   CG3C41     9   180.000000     0.753120     1
  CG3C41   CG3C41    SG3O2   CG3C41     9   180.000000     4.309520     2
  CG3C41   CG3C41    SG3O2   CG3C41     9   180.000000     1.380720     3
  CG3C41   CG3C41    SG3O2   CG3C52     9   180.000000     0.627600     1
  CG3C41   CG3C41    SG3O2   CG3C52     9     0.000000     0.000000     2
  CG3C41   CG3C41    SG3O2   CG3C52     9     0.000000     0.376560     3
  CG3C41   CG3C41    SG3O2   CG3C52     9     0.000000     2.928800     4
  CG3C41   CG3C41    SG3O2    OG2P1     9   180.000000     0.167360     3
  CG3C41   CG3C41    SG3O2    OG2P1     9   180.000000     1.422560     6
  CG3C41   CG3C51   CG3C52   CG3C52     9     0.000000     0.794960     3
  CG3C41   CG3C51   CG3C52     HGA2     9     0.000000     0.794960     3
  CG3C41   CG3C52   CG3C52   CG3C52     9     0.000000     0.041840     2
  CG3C41   CG3C52   CG3C52   CG3C52     9     0.000000    16.777840     3
  CG3C41   CG3C52   CG3C52     HGA2     9     0.000000     0.000000     3
  CG3C41   CG3C52   NG2R53   CG2R53     9     0.000000     0.292880     2
  CG3C41   CG3C52   NG2R53   CG2R53     9   180.000000     0.125520     3
  CG3C41   CG3C52   NG2R53     HGP1     9   180.000000     5.983120     2
  CG3C41   CG3C52   NG2R53     HGP1     9     0.000000     2.008320     3
  CG3C41   CG3RC1   CG3RC1   CG3C41     9   180.000000    30.417680     2
  CG3C41   CG3RC1   CG3RC1   CG3C41     9   180.000000     0.167360     3
  CG3C41   CG3RC1   CG3RC1   CG3C52     9   180.000000     3.012480     3
  CG3C41   CG3RC1   CG3RC1   CG3C54     9     0.000000     0.251040     3
  CG3C41   CG3RC1   CG3RC1   CG3C54     9   180.000000     0.794960     6
  CG3C41   CG3RC1   CG3RC1   CG3RC1     9   180.000000    12.761200     3
  CG3C41   CG3RC1   CG3RC1    NG2S0     9     0.000000     1.966480     2
  CG3C41   CG3RC1   CG3RC1    NG2S0     9     0.000000     5.815760     3
  CG3C41   CG3RC1   CG3RC1     HGA1     9     0.000000     0.000000     3
  CG3C41   CG3RC1   NG2R43   CG2D1O     9     0.000000     0.878640     2
  CG3C41   CG3RC1   NG2R43   CG2D1O     9     0.000000    13.305120     3
  CG3C41   CG3RC1   NG2R43   CG2D2O     9     0.000000     0.878640     2
  CG3C41   CG3RC1   NG2R43   CG2D2O     9     0.000000    13.305120     3
  CG3C41   CG3RC1   NG2R43   CG2R53     9   180.000000     8.033280     2
  CG3C41   CG3RC1   NG2R43   CG2R53     9     0.000000     9.288480     3
  CG3C41   CG3RC1   NG2R43    CG321     9   180.000000     3.347200     2
  CG3C41   CG3RC1   NG2R43    CG321     9   180.000000     1.297040     3
  CG3C41   CG3RC1   NG2R53   CG2R53     9   180.000000    18.284080     3
  CG3C41   CG3RC1   NG2R53   CG2R53     9     0.000000     3.012480     4
  CG3C41   CG3RC1   NG2R53   CG3C52     9     0.000000     1.171520     3
  CG3C41   CG3RC1   NG2R53   CG3C52     9     0.000000    15.773680     4
  CG3C41   CG3RC1    SG311    CG321     9     0.000000     3.765600     1
  CG3C41   CG3RC1    SG311    CG321     9     0.000000    12.175440     3
  CG3C41   CG3RC1    SG311    CG321     9     0.000000     2.133840     6
  CG3C51    CG2O1    NG2S0   CG3C51     9   180.000000    11.506000     2
  CG3C51    CG2O1    NG2S0   CG3C51     9     0.000000     1.255200     4
  CG3C51    CG2O1    NG2S0   CG3C52     9   180.000000    11.506000     2
  CG3C51    CG2O1    NG2S0   CG3C52     9     0.000000     1.255200     4
  CG3C51    CG2O1    NG2S1    CG311     9     0.000000     6.694400     1
  CG3C51    CG2O1    NG2S1    CG311     9   180.000000    10.460000     2
  CG3C51    CG2O1    NG2S1    CG321     9     0.000000     6.694400     1
  CG3C51    CG2O1    NG2S1    CG321     9   180.000000    10.460000     2
  CG3C51    CG2O1    NG2S1    CG331     9     0.000000     6.694400     1
  CG3C51    CG2O1    NG2S1    CG331     9   180.000000    10.460000     2
  CG3C51    CG2O1    NG2S1     HGP1     9   180.000000    10.460000     2
  CG3C51    CG2O1    NG2S2     HGP1     9   180.000000    10.460000     2
  CG3C51    CG2O1      NH1      CT3     9     0.000000     6.694400     1
  CG3C51    CG2O1      NH1      CT3     9   180.000000    10.460000     2
  CG3C51    CG2O1      NH1        H     9   180.000000    10.460000     2
  CG3C51    CG2O1      NH1      CT1     9     0.000000     6.694400     1
  CG3C51    CG2O1      NH1      CT1     9   180.000000    10.460000     2
  CG3C51    CG2O1      NH1      CT2     9     0.000000     6.694400     1
  CG3C51    CG2O1      NH1      CT2     9   180.000000    10.460000     2
  CG3C51    CG2O1        N      CP1     9   180.000000    11.506000     2
  CG3C51    CG2O1        N      CP1     9     0.000000     1.255200     4
  CG3C51    CG2O1        N      CP3     9   180.000000    11.506000     2
  CG3C51    CG2O1        N      CP3     9     0.000000     1.255200     4
  CG3C51    CG2O2    OG311     HGP1     9   180.000000    17.949360     2
  CG3C51    CG2O5    CG301    CG331     9   180.000000     1.715440     1
  CG3C51    CG2O5    CG301    CG331     9     0.000000     4.100320     2
  CG3C51    CG2O5    CG301    CG331     9   180.000000     1.506240     3
  CG3C51    CG2O5    CG301    CG331     9     0.000000     0.376560     6
  CG3C51    CG2O5    CG301   CG3C51     9     0.000000     2.468560     1
  CG3C51    CG2O5    CG301   CG3C51     9     0.000000     1.589920     2
  CG3C51    CG2O5    CG301   CG3C51     9   180.000000     1.589920     3
  CG3C51    CG2O5    CG301   CG3C51     9     0.000000     3.681920     6
  CG3C51    CG2O5   CG3C51    CG321     9   180.000000     0.000000     1
  CG3C51    CG2O5   CG3C51    CG321     9   180.000000     0.000000     2
  CG3C51    CG2O5   CG3C51    CG321     9     0.000000     0.000000     3
  CG3C51    CG2O5   CG3C51    CG321     9     0.000000     0.000000     6
  CG3C51    CG2O5   CG3C51   CG3C52     9     0.000000     0.000000     1
  CG3C51    CG2O5   CG3C51   CG3C52     9   180.000000     0.209200     2
  CG3C51    CG2O5   CG3C51   CG3C52     9     0.000000     0.251040     3
  CG3C51    CG2O5   CG3C51   CG3C52     9   180.000000     1.213360     6
  CG3C51    CG2O5   CG3C51     HGA1     9     0.000000     0.000000     3
  CG3C51    CG2O5   CG3C52   CG3C52     9     0.000000     0.000000     1
  CG3C51    CG2O5   CG3C52   CG3C52     9     0.000000     0.000000     2
  CG3C51    CG2O5   CG3C52   CG3C52     9     0.000000     5.522880     3
  CG3C51    CG2O5   CG3C52   CG3C52     9     0.000000     5.648400     6
  CG3C51    CG2O5   CG3C52     HGA2     9     0.000000     0.000000     3
  CG3C51   CG2R51   CG2R51   CG3C51     9   180.000000    50.208000     2
  CG3C51   CG2R51   CG2R51   CG3C52     9   180.000000    50.208000     2
  CG3C51   CG2R51   CG2R51   CG3C53     9   180.000000    50.208000     2
  CG3C51   CG2R51   CG2R51   NG2R51     9   180.000000    65.772480     2
  CG3C51   CG2R51   CG2R51   NG2R53     9   180.000000    34.015920     2
  CG3C51   CG2R51   CG2R51   OG2R50     9   180.000000   141.042640     2
  CG3C51   CG2R51   CG2R51    OG311     9   180.000000    19.664800     2
  CG3C51   CG2R51   CG2R51   OG3C51     9   180.000000    37.195760     2
  CG3C51   CG2R51   CG2R51    SG3O2     9   180.000000    17.028880     2
  CG3C51   CG2R51   CG2R51    HGR51     9   180.000000    12.133600     2
  CG3C51   CG2R51   CG2R51    HGR52     9   180.000000     7.280160     2
  CG3C51   CG2R51   CG2R52   CG3C52     9   180.000000    47.697600     2
  CG3C51   CG2R51   CG2R52   NG2R50     9   180.000000    46.567920     2
  CG3C51   CG2R51   CG2R52    HGR52     9   180.000000    24.267200     2
  CG3C51   CG2R51    CG331     HGA3     9     0.000000     1.464400     3
  CG3C51   CG2R51   NG2R51   CG2RC0     9   180.000000    75.019120     2
  CG3C51   CG2R51   NG2R51   NG2R50     9   180.000000    59.496480     2
  CG3C51   CG2R51   NG2R51     HGP1     9     0.000000     1.966480     2
  CG3C51   CG2R51    OG311     HGP1     9   180.000000     3.723760     2
  CG3C51   CG2R52    CG331     HGA3     9     0.000000     1.464400     3
  CG3C51   CG2R52   NG2R50   NG2R53     9   180.000000    82.341120     2
  CG3C51   CG2R53   NG2R53   CG2R51     9   180.000000     0.836800     2
  CG3C51   CG2R53   NG2R53   CG2R53     9   180.000000     0.836800     2
  CG3C51   CG2R53   NG2R53    CG321     9   180.000000     0.836800     2
  CG3C51   CG2R53   NG2R53    CG331     9   180.000000     0.836800     2
  CG3C51   CG2R53   NG2R53   CG3C52     9   180.000000     1.673600     2
  CG3C51   CG2R53   NG2R53   NG2R50     9   180.000000     9.581360     2
  CG3C51   CG2R53   NG2R53    SG311     9     0.000000     1.548080     2
  CG3C51   CG2R53   NG2R53     HGP1     9   180.000000     5.313680     2
  CG3C51   CG2R53   OG3C51   CG3C50     9   180.000000    15.899200     2
  CG3C51   CG2R53   OG3C51   CG3C51     9   180.000000    15.899200     2
  CG3C51   CG2R53   OG3C51   CG3C52     9   180.000000    15.899200     2
  CG3C51   CG2R53   OG3C51   CG3RC1     9     0.000000     0.376560     2
  CG3C51   CG2R53    SG311   NG2R53     9     0.000000    29.371680     1
  CG3C51   CG2R53    SG311   NG2R53     9     0.000000     2.552240     2
  CG3C51   CG2R57   CG2RC0   CG2R61     9     0.000000     2.510400     2
  CG3C51   CG2R57   CG2RC0   CG2RC0     9   180.000000    22.928320     2
  CG3C51   CG2R57   CG3C52   CG2RC0     9     0.000000     0.125520     2
  CG3C51   CG2R57   CG3C52   CG2RC0     9   180.000000     0.418400     3
  CG3C51   CG2R57   CG3C52     HGA2     9   180.000000     0.000000     3
  CG3C51   CG2R57   NG2R50   NG2R50     9   180.000000    36.944720     2
  CG3C51   CG2R57   NG2R50   NG2R51     9     0.000000     0.167360     2
  CG3C51   CG2R57   NG2R51   CG2R53     9     0.000000     1.882800     2
  CG3C51   CG2R57   NG2R51    CG321     9     0.000000     2.133840     2
  CG3C51   CG2R57   NG2R51    CG331     9     0.000000     1.338880     2
  CG3C51   CG2R57   NG2R51   NG2R50     9     0.000000     0.794960     2
  CG3C51   CG2R57   OG2R50   CG2R53     9     0.000000     0.543920     2
  CG3C51   CG2R57   SG2R50   CG2R51     9     0.000000     1.004160     2
  CG3C51   CG2R61   CG2R61    HGR61     9   180.000000     5.522880     2
  CG3C51   CG2R61   CG2R61    HGR62     9   180.000000    16.568640     2
  CG3C51   CG2R61   CG2R63   NG2R61     9     0.000000     0.000000     2
  CG3C51   CG2R61   CG2R63    SG2D1     9   180.000000     4.518720     2
  CG3C51   CG2R62   CG2R62    HGR62     9     0.000000     1.631760     2
  CG3C51   CG2R62   CG2R62    HGR63     9     0.000000     1.004160     2
  CG3C51   CG2R62   NG2R61   CG2R62     9     0.000000     2.426720     2
  CG3C51   CG2R62   NG2R61   CG2R63     9   180.000000     3.096160     2
  CG3C51   CG2R62   NG2R61     HGP1     9     0.000000     0.000000     2
  CG3C51   CG2R62   NG2R61     HGP2     9   180.000000    16.066560     2
  CG3C51   CG2R64   NG2R61   CG2R63     9     0.000000     0.041840     2
  CG3C51   CG2R64   NG2R61     HGP1     9   180.000000     2.970640     2
  CG3C51   CG2R64   NG2R62   CG2R62     9   180.000000    31.923920     2
  CG3C51   CG2RC0   CG2RC0   CG3C51     9   180.000000    25.104000     2
  CG3C51   CG2RC0   CG2RC0   CG3C52     9   180.000000    25.104000     2
  CG3C51   CG2RC0   CG2RC0   CG3RC1     9   180.000000    25.104000     2
  CG3C51   CG2RC0   CG2RC0   NG2R57     9   180.000000    12.552000     2
  CG3C51   CG2RC0   CG2RC0   NG3C51     9   180.000000    25.104000     2
  CG3C51   CG2RC0   CG2RC0   OG3C51     9   180.000000    12.803040     2
  CG3C51   CG2RC0   NG2R61   CG2R63     9   180.000000    16.987040     2
  CG3C51   CG2RC0   NG2R61     HGP1     9   180.000000    17.823840     2
  CG3C51    CG301    CG321    CG311     9     0.000000     0.836800     3
  CG3C51    CG301    CG321     HGA2     9     0.000000     0.836800     3
  CG3C51    CG301    CG331     HGA3     9     0.000000     0.836800     3
  CG3C51    CG311    CG311   OG3C61     9     0.000000     3.723760     1
  CG3C51    CG311    CG311   OG3C61     9   180.000000     1.757280     2
  CG3C51    CG311    CG311   OG3C61     9   180.000000     0.209200     3
  CG3C51    CG311    CG311   OG3C61     9     0.000000     3.598240     4
  CG3C51    CG311    CG311   OG3C61     9     0.000000     1.213360     6
  CG3C51    CG311    CG311     HGA1     9     0.000000     0.627600     3
  CG3C51    CG311    CG321    CG321     9     0.000000     0.836800     3
  CG3C51    CG311    CG321     HGA2     9     0.000000     0.815880     3
  CG3C51    CG311    CG324    NG3P2     9   180.000000     2.845120     3
  CG3C51    CG311    CG324     HGA2     9     0.000000     0.836800     3
  CG3C51    CG311    CG331     HGA3     9     0.000000     0.836800     3
  CG3C51    CG311    NG311    CG321     9   180.000000     0.251040     1
  CG3C51    CG311    NG311    CG321     9     0.000000     0.167360     2
  CG3C51    CG311    NG311    CG321     9   180.000000     3.263520     3
  CG3C51    CG311    NG311    CG321     9     0.000000     0.000000     6
  CG3C51    CG311    NG311   HGPAM1     9   180.000000     0.000000     3
  CG3C51    CG311    NG311   HGPAM1     9   180.000000     1.422560     6
  CG3C51    CG311    OG311     HGP1     9     0.000000    10.543680     1
  CG3C51    CG311    OG311     HGP1     9     0.000000     4.100320     2
  CG3C51    CG311    OG311     HGP1     9     0.000000     3.556400     3
  CG3C51    CG311   OG3C61    CG321     9   180.000000     0.334720     1
  CG3C51    CG311   OG3C61    CG321     9     0.000000     1.171520     2
  CG3C51    CG311   OG3C61    CG321     9   180.000000     1.548080     3
  CG3C51    CG311   OG3C61    CG321     9     0.000000     1.255200     4
  CG3C51    CG314    NG3P3     HGP2     9     0.000000     0.418400     3
  CG3C51    CG321    CG321     HGA2     9     0.000000     2.092000     3
  CG3C51    CG321    NG321   HGPAM2     9     0.000000     2.217520     3
  CG3C51    CG321    OG301   CG2R61     9   180.000000     0.836800     1
  CG3C51    CG321    OG301   CG2R61     9     0.000000     0.418400     2
  CG3C51    CG321    OG301   CG2R61     9   180.000000     0.418400     3
  CG3C51    CG321    OG303      PG0     9   180.000000     2.510400     1
  CG3C51    CG321    OG303      PG0     9     0.000000     2.719600     2
  CG3C51    CG321    OG303      PG0     9     0.000000     0.209200     3
  CG3C51    CG321    OG303      PG1     9   180.000000     2.510400     1
  CG3C51    CG321    OG303      PG1     9     0.000000     2.719600     2
  CG3C51    CG321    OG303      PG1     9     0.000000     0.209200     3
  CG3C51    CG321    OG303      PG2     9   180.000000     2.510400     1
  CG3C51    CG321    OG303      PG2     9     0.000000     2.719600     2
  CG3C51    CG321    OG303      PG2     9     0.000000     0.209200     3
  CG3C51    CG321    OG311     HGP1     9     0.000000     4.727920     1
  CG3C51    CG321    OG311     HGP1     9     0.000000     0.585760     2
  CG3C51    CG321    OG311     HGP1     9     0.000000     1.004160     3
  CG3C51    CG321    SG311    CG321     9   180.000000     1.004160     1
  CG3C51    CG321    SG311    CG321     9     0.000000     1.548080     3
  CG3C51    CG321      CT1        C     9     0.000000     0.836800     3
  CG3C51    CG321     CTD1        C     9     0.000000     0.836800     3
  CG3C51    CG324    NG3P3     HGP2     9     0.000000     0.418400     3
  CG3C51   CG3C31   CG3C31   OG3C31     9     0.000000     4.267680     2
  CG3C51   CG3C31   CG3C31   OG3C31     9     0.000000     0.209200     6
  CG3C51   CG3C31   CG3C31     HGA2     9   180.000000     0.000000     5
  CG3C51   CG3C31   OG3C31   CG3C31     9   180.000000    12.384640     3
  CG3C51   CG3C31   OG3C31   CG3C31     9   180.000000     2.092000     5
  CG3C51   CG3C31   OG3C31   CG3C31     9     0.000000     1.338880     6
  CG3C51   CG3C41   CG3C41    NG311     9     0.000000     8.577200     3
  CG3C51   CG3C41   CG3C41    NG311     9   180.000000     1.380720     6
  CG3C51   CG3C41   CG3C41     HGA2     9     0.000000     0.000000     3
  CG3C51   CG3C41    SG3O2   CG3C52     9     0.000000     1.506240     1
  CG3C51   CG3C41    SG3O2   CG3C52     9     0.000000     0.000000     2
  CG3C51   CG3C41    SG3O2   CG3C52     9     0.000000     3.389040     3
  CG3C51   CG3C41    SG3O2    OG2P1     9     0.000000     1.757280     3
  CG3C51   CG3C50   CG3C50   CG3C52     9     0.000000     3.514560     3
  CG3C51   CG3C50   CG3C50   CG3C52     9     0.000000     0.669440     4
  CG3C51   CG3C50   CG3C51    CG2O2     9     0.000000     7.238320     3
  CG3C51   CG3C50   CG3C51    CG2O2     9     0.000000     2.384880     4
  CG3C51   CG3C50   CG3C51    CG2O3     9     0.000000     1.631760     2
  CG3C51   CG3C50   CG3C51    CG2O3     9     0.000000     1.213360     3
  CG3C51   CG3C50   CG3C51   CG3C52     9   180.000000     1.715440     3
  CG3C51   CG3C50   CG3C51    OG311     9     0.000000     0.836800     3
  CG3C51   CG3C50   CG3C51     HGA1     9     0.000000     0.794960     3
  CG3C51   CG3C50   CG3C52   CG3C52     9   180.000000     1.715440     3
  CG3C51   CG3C50   CG3C52   NG2R53     9     0.000000     0.878640     3
  CG3C51   CG3C50   CG3C52   NG2R53     9     0.000000    10.334480     4
  CG3C51   CG3C50   CG3C52   NG3C51     9     0.000000     2.886960     3
  CG3C51   CG3C50   CG3C52   OG3C51     9     0.000000     0.000000     3
  CG3C51   CG3C50   CG3C52     HGA2     9     0.000000     0.794960     3
  CG3C51   CG3C50   CG3C54    NG3P2     9     0.000000     0.000000     3
  CG3C51   CG3C50   CG3C54    NG3P2     9   180.000000     0.000000     4
  CG3C51   CG3C50   CG3C54     HGA2     9     0.000000     0.794960     3
  CG3C51   CG3C50   NG2R53   CG2R53     9     0.000000     2.133840     2
  CG3C51   CG3C50   NG2R53   CG2R53     9     0.000000     0.209200     3
  CG3C51   CG3C50   NG2R53     HGP1     9     0.000000     0.376560     2
  CG3C51   CG3C50   NG2R53     HGP1     9     0.000000     3.054320     3
  CG3C51   CG3C50    NG2S0    CG2O1     9     0.000000     3.347200     3
  CG3C51   CG3C50    NG2S0   CG3C52     9     0.000000     0.418400     3
  CG3C51   CG3C50   NG3C51    CG331     9     0.000000     5.815760     3
  CG3C51   CG3C50   NG3C51   CG3C52     9     0.000000     0.753120     3
  CG3C51   CG3C50    OG311     HGP1     9     0.000000     1.213360     1
  CG3C51   CG3C50    OG311     HGP1     9     0.000000     2.594080     2
  CG3C51   CG3C50    OG311     HGP1     9     0.000000     0.209200     3
  CG3C51   CG3C50   OG3C51   CG3C50     9     0.000000     2.092000     3
  CG3C51   CG3C50   OG3C51   CG3C51     9     0.000000     2.092000     3
  CG3C51   CG3C51   CG3C51   CG3C51     9   180.000000     1.715440     3
  CG3C51   CG3C51   CG3C51   CG3C52     9   180.000000     1.715440     3
  CG3C51   CG3C51   CG3C51   CG3C53     9     0.000000     1.673600     6
  CG3C51   CG3C51   CG3C51   CG3RC1     9     0.000000     0.627600     3
  CG3C51   CG3C51   CG3C51   NG2R51     9     0.000000     0.000000     3
  CG3C51   CG3C51   CG3C51   NG2R61     9     0.000000     0.000000     3
  CG3C51   CG3C51   CG3C51    NG301     9     0.000000     0.000000     3
  CG3C51   CG3C51   CG3C51    NG311     9     0.000000     0.000000     3
  CG3C51   CG3C51   CG3C51    OG303     9   180.000000     8.368000     3
  CG3C51   CG3C51   CG3C51    OG303     9     0.000000     1.673600     5
  CG3C51   CG3C51   CG3C51    OG303     9     0.000000     3.347200     6
  CG3C51   CG3C51   CG3C51    OG311     9     0.000000     0.836800     3
  CG3C51   CG3C51   CG3C51   OG3C51     9     0.000000     0.000000     3
  CG3C51   CG3C51   CG3C51    SG311     9     0.000000     0.372794     3
  CG3C51   CG3C51   CG3C51     FGA1     9     0.000000     0.836800     3
  CG3C51   CG3C51   CG3C51     HGA1     9     0.000000     0.794960     3
  CG3C51   CG3C51   CG3C51     HGA6     9     0.000000     0.794960     3
  CG3C51   CG3C51   CG3C52   CG2R51     9   180.000000     1.422560     3
  CG3C51   CG3C51   CG3C52   CG2R53     9   180.000000     1.422560     3
  CG3C51   CG3C51   CG3C52   CG3C51     9   180.000000     1.715440     3
  CG3C51   CG3C51   CG3C52   CG3C52     9   180.000000     1.715440     3
  CG3C51   CG3C51   CG3C52   CG3RC1     9     0.000000     0.627600     3
  CG3C51   CG3C51   CG3C52    NG2S0     9     0.000000     0.585760     3
  CG3C51   CG3C51   CG3C52   NG3C51     9     0.000000     2.886960     3
  CG3C51   CG3C51   CG3C52   OG3C51     9     0.000000     0.000000     3
  CG3C51   CG3C51   CG3C52    SG311     9     0.000000     0.376560     3
  CG3C51   CG3C51   CG3C52     HGA2     9     0.000000     0.794960     3
  CG3C51   CG3C51   CG3C53   CG2R51     9   180.000000     1.422560     3
  CG3C51   CG3C51   CG3C53   CG3RC1     9     0.000000     0.627600     3
  CG3C51   CG3C51   CG3C53   NG2R61     9     0.000000     0.000000     3
  CG3C51   CG3C51   CG3C53    NG3P2     9     0.000000     0.585760     3
  CG3C51   CG3C51   CG3C53   OG3C51     9     0.000000     2.510400     6
  CG3C51   CG3C51   CG3C53     HGA1     9     0.000000     0.815880     3
  CG3C51   CG3C51   CG3C54    NG3P2     9     0.000000     0.585760     3
  CG3C51   CG3C51   CG3C54     HGA2     9     0.000000     0.794960     3
  CG3C51   CG3C51   CG3RC1    CG311     9     0.000000     0.209200     3
  CG3C51   CG3C51   CG3RC1   CG3C31     9     0.000000     0.627600     3
  CG3C51   CG3C51   CG3RC1   CG3RC1     9     0.000000     0.627600     3
  CG3C51   CG3C51   CG3RC1    NG2S0     9     0.000000     0.627600     3
  CG3C51   CG3C51   CG3RC1   OG3C31     9     0.000000     2.510400     3
  CG3C51   CG3C51   CG3RC1   OG3C31     9     0.000000     2.092000     4
  CG3C51   CG3C51   CG3RC1   OG3C51     9     0.000000     5.313680     3
  CG3C51   CG3C51   CG3RC1   OG3C51     9     0.000000     0.585760     6
  CG3C51   CG3C51   CG3RC1     HGA1     9     0.000000     0.627600     3
  CG3C51   CG3C51   NG2R51   CG2R51     9     0.000000     0.836800     4
  CG3C51   CG3C51   NG2R51   CG2R53     9   180.000000     0.000000     3
  CG3C51   CG3C51   NG2R51   CG2RC0     9     0.000000     0.000000     3
  CG3C51   CG3C51   NG2R53   CG2R53     9   180.000000     9.665040     3
  CG3C51   CG3C51   NG2R53     HGP1     9     0.000000     3.179840     3
  CG3C51   CG3C51   NG2R61   CG2R62     9   180.000000     0.000000     3
  CG3C51   CG3C51   NG2R61   CG2R63     9     0.000000     4.184000     3
  CG3C51   CG3C51    NG2S3      PG1     9   180.000000     6.276000     1
  CG3C51   CG3C51    NG2S3      PG1     9   180.000000     2.719600     2
  CG3C51   CG3C51    NG2S3      PG1     9     0.000000     4.184000     3
  CG3C51   CG3C51    NG2S3     HGP1     9     0.000000     1.255200     1
  CG3C51   CG3C51    NG301   CG2D1O     9     0.000000     0.000000     3
  CG3C51   CG3C51    NG301   CG2D2O     9     0.000000     0.000000     3
  CG3C51   CG3C51    NG301    CG321     9   180.000000     8.368000     1
  CG3C51   CG3C51    NG301    CG321     9     0.000000     2.928800     3
  CG3C51   CG3C51    NG311    CG321     9   180.000000     8.368000     1
  CG3C51   CG3C51    NG311    CG321     9     0.000000     2.928800     3
  CG3C51   CG3C51    NG311   HGPAM1     9     0.000000     0.836800     2
  CG3C51   CG3C51    NG321   HGPAM2     9   180.000000     1.255200     3
  CG3C51   CG3C51   NG3C51   CG2RC0     9   180.000000     6.066800     3
  CG3C51   CG3C51   NG3C51    CG331     9     0.000000     5.815760     3
  CG3C51   CG3C51   NG3C51   CG3C52     9     0.000000     0.753120     3
  CG3C51   CG3C51   NG3C51     HGP1     9     0.000000     2.301200     1
  CG3C51   CG3C51   NG3C51     HGP1     9     0.000000     3.556400     3
  CG3C51   CG3C51    OG303      PG1     9   180.000000    10.460000     1
  CG3C51   CG3C51    OG303      PG2     9   180.000000    10.460000     1
  CG3C51   CG3C51    OG311     HGP1     9     0.000000     1.213360     1
  CG3C51   CG3C51    OG311     HGP1     9     0.000000     2.594080     2
  CG3C51   CG3C51    OG311     HGP1     9     0.000000     0.209200     3
  CG3C51   CG3C51   OG3C51   CG2R53     9     0.000000     9.288480     2
  CG3C51   CG3C51   OG3C51   CG2RC0     9     0.000000     3.054320     3
  CG3C51   CG3C51   OG3C51   CG3C51     9     0.000000     2.092000     3
  CG3C51   CG3C51   OG3C51   CG3C52     9     0.000000     2.092000     3
  CG3C51   CG3C51   OG3C51   CG3C53     9     0.000000     0.000000     6
  CG3C51   CG3C51   OG3C51   CG3RC1     9     0.000000     2.092000     3
  CG3C51   CG3C51    SG311   CG2D1O     9   180.000000     2.358939     1
  CG3C51   CG3C51    SG311   CG2D1O     9     0.000000     1.459379     3
  CG3C51   CG3C51    SG311   CG2D2O     9   180.000000     2.358939     1
  CG3C51   CG3C51    SG311   CG2D2O     9     0.000000     1.459379     3
  CG3C51   CG3C51    SG311   CG2R53     9     0.000000     0.209200     1
  CG3C51   CG3C51    SG311   CG2R53     9   180.000000     3.807440     2
  CG3C51   CG3C51    SG311   CG2R53     9     0.000000     4.184000     3
  CG3C51   CG3C51    OG301   CC3162     9   180.000000     0.836800     1
  CG3C51   CG3C51    OG301   CC3162     9     0.000000     1.255200     3
  CG3C51   CG3C52   CG3C52   CG3C51     9   180.000000     1.715440     3
  CG3C51   CG3C52   CG3C52   CG3C52     9   180.000000     1.715440     3
  CG3C51   CG3C52   CG3C52   CG3RC1     9     0.000000     0.627600     3
  CG3C51   CG3C52   CG3C52    NG2S0     9     0.000000     0.585760     3
  CG3C51   CG3C52   CG3C52   NG3C51     9     0.000000     2.886960     3
  CG3C51   CG3C52   CG3C52   OG3C51     9     0.000000     0.000000     3
  CG3C51   CG3C52   CG3C52    SG311     9   180.000000     1.255200     3
  CG3C51   CG3C52   CG3C52    SG3O2     9   180.000000     1.715440     3
  CG3C51   CG3C52   CG3C52    SG3O2     9   180.000000     1.213360     4
  CG3C51   CG3C52   CG3C52     HGA2     9     0.000000     0.794960     3
  CG3C51   CG3C52   CG3C53   CG2R51     9   180.000000     1.422560     3
  CG3C51   CG3C52   CG3C53   CG2R61     9     0.000000     0.292880     3
  CG3C51   CG3C52   CG3C53   CG2R61     9   180.000000     0.125520     4
  CG3C51   CG3C52   CG3C53   CG3C52     9   180.000000     1.715440     3
  CG3C51   CG3C52   CG3C53   CG3RC1     9     0.000000     0.627600     3
  CG3C51   CG3C52   CG3C53    NG3P2     9     0.000000     0.585760     3
  CG3C51   CG3C52   CG3C53    NG3P3     9     0.000000     0.585760     3
  CG3C51   CG3C52   CG3C53     HGA1     9     0.000000     0.585760     3
  CG3C51   CG3C52   CG3C54    NG2P1     9     0.000000    13.932720     3
  CG3C51   CG3C52   CG3C54    NG2P1     9   180.000000     1.631760     6
  CG3C51   CG3C52   CG3C54    NG3P2     9     0.000000     0.585760     3
  CG3C51   CG3C52   CG3C54     HGA2     9     0.000000     0.585760     3
  CG3C51   CG3C52   CG3RC1    CG311     9     0.000000     0.418400     3
  CG3C51   CG3C52   CG3RC1    CG311     9     0.000000     2.092000     4
  CG3C51   CG3C52   CG3RC1    CG321     9     0.000000     0.836800     3
  CG3C51   CG3C52   CG3RC1   CG3C31     9     0.000000    16.736000     3
  CG3C51   CG3C52   CG3RC1   CG3C51     9     0.000000     0.000000     3
  CG3C51   CG3C52   CG3RC1   CG3C52     9     0.000000     0.000000     3
  CG3C51   CG3C52   CG3RC1   CG3RC1     9     0.000000     7.322000     3
  CG3C51   CG3C52   CG3RC1     HGA1     9     0.000000     0.627600     3
  CG3C51   CG3C52   NG2R51   CG2R53     9   180.000000     0.000000     3
  CG3C51   CG3C52   NG2R51   CG2RC0     9     0.000000     0.000000     3
  CG3C51   CG3C52   NG2R53   CG2R53     9   180.000000     9.665040     3
  CG3C51   CG3C52   NG2R53     HGP1     9     0.000000     3.179840     3
  CG3C51   CG3C52   NG2R57   CG2R57     9     0.000000     0.209200     4
  CG3C51   CG3C52   NG2R57   CG2RC0     9     0.000000     3.681920     3
  CG3C51   CG3C52   NG2R57   CG2RC0     9   180.000000     1.338880     4
  CG3C51   CG3C52    NG2S0    CG2O1     9   180.000000     1.110015     3
  CG3C51   CG3C52    NG2S0   CG3C51     9     0.000000     0.418400     3
  CG3C51   CG3C52    NG2S0   CG3RC1     9     0.000000     0.418400     3
  CG3C51   CG3C52   NG3C51   CG2R64     9   180.000000    16.610480     2
  CG3C51   CG3C52   NG3C51   CG2R64     9   180.000000    10.460000     3
  CG3C51   CG3C52   NG3C51   CG2RC0     9   180.000000     6.066800     3
  CG3C51   CG3C52   NG3C51    CG311     9     0.000000     4.267680     3
  CG3C51   CG3C52   NG3C51    CG331     9     0.000000     5.899440     3
  CG3C51   CG3C52   NG3C51    CG331     9     0.000000     0.209200     4
  CG3C51   CG3C52   NG3C51   CG3C51     9     0.000000     0.753120     3
  CG3C51   CG3C52   NG3C51   CG3C52     9     0.000000     0.753120     3
  CG3C51   CG3C52   NG3C51     HGP1     9     0.000000     2.301200     1
  CG3C51   CG3C52   NG3C51     HGP1     9     0.000000     3.556400     3
  CG3C51   CG3C52   OG3C51   CG2R53     9     0.000000     9.288480     2
  CG3C51   CG3C52   OG3C51   CG2RC0     9     0.000000     3.054320     3
  CG3C51   CG3C52   OG3C51   CG3C51     9     0.000000     2.092000     3
  CG3C51   CG3C52   OG3C51   CG3C52     9     0.000000     2.092000     3
  CG3C51   CG3C52   OG3C51   CG3RC1     9     0.000000     2.092000     3
  CG3C51   CG3C52    SG311   CG3C51     9   180.000000     0.711280     1
  CG3C51   CG3C52    SG311   CG3C51     9     0.000000     1.548080     3
  CG3C51   CG3C52    SG311   CG3C52     9   180.000000     0.718811     1
  CG3C51   CG3C52    SG311   CG3C52     9     0.000000     1.548080     3
  CG3C51   CG3C52    SG311   CG3RC1     9   180.000000     0.711280     1
  CG3C51   CG3C52    SG311   CG3RC1     9     0.000000     1.548080     3
  CG3C51   CG3C52    SG3O2   CG2R51     9   180.000000     1.422560     2
  CG3C51   CG3C52    SG3O2   CG2R51     9     0.000000     0.962320     3
  CG3C51   CG3C52    SG3O2    OG2P1     9   180.000000     3.765600     2
  CG3C51   CG3C52    SG3O2    OG2P1     9     0.000000     2.384880     3
  CG3C51   CG3C53   CG3C54    NG3P2     9     0.000000     0.585760     3
  CG3C51   CG3C53   CG3C54     HGA2     9     0.000000     0.794960     3
  CG3C51   CG3C53   CG3RC1   CG3RC1     9     0.000000     0.627600     3
  CG3C51   CG3C53   CG3RC1   OG3C31     9     0.000000     2.510400     3
  CG3C51   CG3C53   CG3RC1   OG3C31     9     0.000000     2.092000     4
  CG3C51   CG3C53   CG3RC1     HGA1     9     0.000000     0.627600     3
  CG3C51   CG3C53   NG2R52   CG2R51     9     0.000000     0.167360     3
  CG3C51   CG3C53   NG2R52   CG2R51     9     0.000000     4.769760     6
  CG3C51   CG3C53   NG2R52   CG2R53     9   180.000000     6.359680     3
  CG3C51   CG3C53   NG2R52   CG2R53     9   180.000000     2.761440     6
  CG3C51   CG3C53   NG2R61   CG2R62     9   180.000000     0.000000     3
  CG3C51   CG3C53    NG3P1    CG324     9     0.000000     9.288480     1
  CG3C51   CG3C53    NG3P1    CG324     9     0.000000     0.962320     3
  CG3C51   CG3C53    NG3P1    CG324     9     0.000000     2.175680     6
  CG3C51   CG3C53    NG3P1     HGP2     9     0.000000     1.840960     3
  CG3C51   CG3C53    NG3P1     HGP2     9     0.000000     1.422560     6
  CG3C51   CG3C53    NG3P2    CG324     9   180.000000     3.347200     1
  CG3C51   CG3C53    NG3P2    CG324     9     0.000000     0.334720     3
  CG3C51   CG3C53    NG3P2   CG3C54     9     0.000000     0.334720     3
  CG3C51   CG3C53    NG3P2     HGP2     9     0.000000     0.334720     3
  CG3C51   CG3C53    NG3P3     HGP2     9     0.000000     0.334720     3
  CG3C51   CG3C53   OG3C51   CG3C51     9     0.000000     0.000000     6
  CG3C51   CG3C54    NG2P1   CG2R64     9   180.000000     8.953760     3
  CG3C51   CG3C54    NG2P1   CG2R64     9   180.000000     3.891120     6
  CG3C51   CG3C54    NG2P1   CG3C54     9     0.000000     1.589920     3
  CG3C51   CG3C54    NG2P1   CG3C54     9     0.000000     7.740400     6
  CG3C51   CG3C54    NG3P2   CG3C53     9     0.000000     0.334720     3
  CG3C51   CG3C54    NG3P2   CG3C54     9     0.000000     0.418400     3
  CG3C51   CG3C54    NG3P2     HGP2     9     0.000000     0.334720     3
  CG3C51   CG3RC1   CG3RC1   CG3C51     9     0.000000    16.736000     3
  CG3C51   CG3RC1   CG3RC1   CG3C52     9     0.000000    16.736000     3
  CG3C51   CG3RC1   CG3RC1   CG3C53     9     0.000000     2.510400     3
  CG3C51   CG3RC1   CG3RC1   OG3C31     9     0.000000     2.092000     4
  CG3C51   CG3RC1   CG3RC1   OG3C51     9     0.000000     5.020800     3
  CG3C51   CG3RC1   CG3RC1     HGA1     9     0.000000     0.627600     3
  CG3C51   CG3RC1    NG2S0    CG2O1     9   180.000000     8.242480     3
  CG3C51   CG3RC1    NG2S0    CG2O1     9     0.000000     3.012480     4
  CG3C51   CG3RC1    NG2S0   CG3C52     9     0.000000     2.050160     2
  CG3C51   CG3RC1    NG2S0   CG3C52     9   180.000000     1.464400     3
  CG3C51   CG3RC1   OG3C31   CG3RC1     9   180.000000    10.250800     3
  CG3C51   CG3RC1   OG3C31   CG3RC1     9     0.000000     4.184000     4
  CG3C51   CG3RC1   OG3C51   CG3C50     9   180.000000     1.171520     3
  CG3C51    NG2S3      PG1    OG2P1     9     0.000000     1.673600     3
  CG3C51    NG2S3      PG1    OG2P1     9     0.000000     2.092000     4
  CG3C51    NG2S3      PG1    OG303     9     0.000000     7.949600     2
  CG3C51   NG3C51   OG3C51   CG2R51     9     0.000000     3.607863     3
  CG3C51   NG3C51   OG3C51   CG3C51     9     0.000000     0.088701     3
  CG3C51   NG3C51    SG3O2    NG321     9   180.000000    12.677520     1
  CG3C51   NG3C51    SG3O2    NG321     9     0.000000     2.217520     2
  CG3C51   NG3C51    SG3O2    NG321     9   180.000000     0.376560     3
  CG3C51   NG3C51    SG3O2    OG2P1     9     0.000000     7.865920     3
  CG3C51    NG3N1    NG3N1     HGP1     9     0.000000    20.710800     2
  CG3C51    NG3N1    NG3N1     HGP1     9   180.000000     0.083680     6
  CG3C51    OG303      PG1    OG2P1     9     0.000000     0.418400     3
  CG3C51    OG303      PG1    OG303     9   180.000000     5.020800     1
  CG3C51    OG303      PG1    OG303     9   180.000000     0.418400     2
  CG3C51    OG303      PG1    OG303     9   180.000000     0.418400     3
  CG3C51    OG303      PG1    OG311     9     0.000000     3.974800     2
  CG3C51    OG303      PG1    OG311     9     0.000000     2.092000     3
  CG3C51    OG303      PG2    OG2P1     9     0.000000     0.418400     3
  CG3C51      CT1        C      NH1     9     0.000000     0.000000     1
  CG3C51      CT1        C        O     9     0.000000     5.857600     1
  CG3C51      CT1        C        N     9   180.000000    11.506000     2
  CG3C51      CT1        C        N     9     0.000000     1.255200     4
  CG3C51    SG311    CG321      CT1     9   180.000000     0.769856     1
  CG3C51    SG311    CG321      CT1     9     0.000000     1.058552     2
  CG3C51    SG311    CG321      CT1     9     0.000000     0.627600     3
  CG3C53    CG2O1    NG2S0   CG3C51     9   180.000000    11.506000     2
  CG3C53    CG2O1    NG2S0   CG3C51     9     0.000000     1.255200     4
  CG3C53    CG2O1    NG2S0   CG3C52     9   180.000000    11.506000     2
  CG3C53    CG2O1    NG2S0   CG3C52     9     0.000000     1.255200     4
  CG3C53    CG2O1    NG2S1    CG311     9     0.000000     6.694400     1
  CG3C53    CG2O1    NG2S1    CG311     9   180.000000    10.460000     2
  CG3C53    CG2O1    NG2S1    CG321     9     0.000000     6.694400     1
  CG3C53    CG2O1    NG2S1    CG321     9   180.000000    10.460000     2
  CG3C53    CG2O1    NG2S1    CG331     9     0.000000     6.694400     1
  CG3C53    CG2O1    NG2S1    CG331     9   180.000000    10.460000     2
  CG3C53    CG2O1    NG2S1     HGP1     9   180.000000    10.460000     2
  CG3C53    CG2O1    NG2S2     HGP1     9   180.000000    10.460000     2
  CG3C53   CG2R51   CG2R51    HGR51     9   180.000000    17.782000     2
  CG3C53   CG2R53   NG2R57   CG2R57     9   180.000000     0.167360     2
  CG3C53   CG2R53   NG2R57   CG3C52     9   180.000000    11.715200     2
  CG3C53   CG2R57   CG2RC0   CG2R61     9     0.000000     1.046000     2
  CG3C53   CG2R57   CG2RC0   CG2RC0     9   180.000000    14.811360     2
  CG3C53   CG2R57   NG2R50   CG2RC0     9   180.000000     3.472720     2
  CG3C53   CG2R57   NG2R51   CG2RC0     9     0.000000     0.000000     2
  CG3C53   CG2R57   NG2R51    CG331     9     0.000000     5.062640     2
  CG3C53   CG2R57   OG2R50   CG2RC0     9   180.000000    17.238080     2
  CG3C53   CG2R61   CG2R61   NG2R61     9   180.000000    13.681680     2
  CG3C53   CG2R61   CG2R61    HGR61     9   180.000000    10.041600     2
  CG3C53   CG2R61   CG2R61    HGR62     9   180.000000    10.041600     2
  CG3C53   CG2R61   CG2R66   CG2R61     9     0.000000     0.000000     2
  CG3C53   CG2R61   CG2R66     FGR1     9   180.000000    16.861520     2
  CG3C53   CG2R61   NG2R60   CG2R61     9   180.000000    19.330080     2
  CG3C53   CG2R64   NG2R61   CG2R63     9     0.000000     1.046000     2
  CG3C53   CG2R64   NG2R61     HGP1     9     0.000000     0.543920     2
  CG3C53   CG2R64   NG2R62   CG2R64     9   180.000000    30.585040     2
  CG3C53    CG301    CG321    CG311     9     0.000000     0.000000     2
  CG3C53    CG301    CG321    CG311     9   180.000000     3.891120     3
  CG3C53    CG301    CG321     HGA2     9     0.000000     0.000000     3
  CG3C53    CG311    CG321    CG321     9     0.000000     0.836800     3
  CG3C53    CG311    CG321     HGA2     9     0.000000     0.836800     3
  CG3C53    CG311    CG324    NG3P1     9   180.000000     6.192320     3
  CG3C53    CG311    CG324    NG3P1     9     0.000000     1.255200     4
  CG3C53    CG311    CG324     HGA2     9     0.000000     0.836800     3
  CG3C53    CG321    CG321     HGA2     9     0.000000     0.836800     3
  CG3C53   CG3C50   CG3C52   CG3C52     9     0.000000    11.254960     4
  CG3C53   CG3C50   CG3C52   CG3C52     9     0.000000     1.255200     6
  CG3C53   CG3C50   CG3C52   NG3C51     9   180.000000    35.438480     2
  CG3C53   CG3C50   CG3C52   NG3C51     9     0.000000    11.631520     3
  CG3C53   CG3C50   CG3C52     HGA2     9     0.000000     0.000000     3
  CG3C53   CG3C51   CG3C51   CG3RC1     9     0.000000     1.673600     6
  CG3C53   CG3C51   CG3C51    OG311     9     0.000000     0.585760     3
  CG3C53   CG3C51   CG3C51     HGA1     9     0.000000     0.815880     3
  CG3C53   CG3C51   CG3C52   CG3C52     9     0.000000     1.673600     6
  CG3C53   CG3C51   CG3C52   CG3C54     9     0.000000     0.669440     3
  CG3C53   CG3C51   CG3C52   OG3C51     9     0.000000     0.000000     2
  CG3C53   CG3C51   CG3C52   OG3C51     9     0.000000    13.221440     3
  CG3C53   CG3C51   CG3C52     HGA2     9     0.000000     0.669440     3
  CG3C53   CG3C51   CG3C54    NG3P2     9     0.000000     4.727920     3
  CG3C53   CG3C51   CG3C54    NG3P2     9     0.000000     0.962320     4
  CG3C53   CG3C51   CG3C54     HGA2     9     0.000000     0.669440     3
  CG3C53   CG3C51   NG2R51   CG2R51     9   180.000000     4.184000     2
  CG3C53   CG3C51   NG2R51   CG2R51     9     0.000000     2.510400     4
  CG3C53   CG3C51   NG2R51   NG2R50     9   180.000000     2.635920     1
  CG3C53   CG3C51   NG2R51   NG2R50     9     0.000000     0.083680     2
  CG3C53   CG3C51   NG2R51   NG2R50     9     0.000000     4.602400     4
  CG3C53   CG3C51    NG2S0    CG2O1     9   180.000000     3.221680     3
  CG3C53   CG3C51    NG2S0    CG321     9   180.000000     2.677760     2
  CG3C53   CG3C51    NG2S0    CG321     9     0.000000     3.472720     3
  CG3C53   CG3C51    NG301    CG321     9   180.000000     3.849280     1
  CG3C53   CG3C51    NG301    CG321     9     0.000000     0.794960     3
  CG3C53   CG3C51    NG301    CG321     9     0.000000     0.711280     6
  CG3C53   CG3C51    NG321   HGPAM2     9     0.000000     5.397360     3
  CG3C53   CG3C51    NG321   HGPAM2     9   180.000000     1.129680     6
  CG3C53   CG3C51    OG311     HGP1     9     0.000000     1.213360     1
  CG3C53   CG3C51    OG311     HGP1     9     0.000000     2.594080     2
  CG3C53   CG3C51    OG311     HGP1     9     0.000000     0.209200     3
  CG3C53   CG3C51   OG3C51   CG3C52     9     0.000000    20.041360     3
  CG3C53   CG3C51   OG3C51   CG3C52     9   180.000000    14.602160     4
  CG3C53   CG3C51    OG301   CC3162     9   180.000000     0.836800     1
  CG3C53   CG3C51    OG301   CC3162     9     0.000000     1.255200     3
  CG3C53   CG3C52   CG3C52   CG3C53     9     0.000000     0.669440     3
  CG3C53   CG3C52   CG3C52   CG3C54     9     0.000000     0.669440     3
  CG3C53   CG3C52   CG3C52   CG3RC1     9     0.000000     1.673600     6
  CG3C53   CG3C52   CG3C52   NG2R57     9     0.000000     1.422560     2
  CG3C53   CG3C52   CG3C52   NG2R57     9     0.000000     3.556400     3
  CG3C53   CG3C52   CG3C52   OG3C51     9     0.000000     0.836800     2
  CG3C53   CG3C52   CG3C52   OG3C51     9     0.000000     0.962320     3
  CG3C53   CG3C52   CG3C52     HGA2     9     0.000000     0.669440     3
  CG3C53   CG3C52   CG3C54    NG3P2     9     0.000000     8.702720     3
  CG3C53   CG3C52   CG3C54    NG3P2     9   180.000000     1.297040     4
  CG3C53   CG3C52   CG3C54     HGA2     9     0.000000     0.669440     3
  CG3C53   CG3C52   NG2R53   CG2R53     9   180.000000     0.418400     3
  CG3C53   CG3C52   NG2R53   CG2R53     9     0.000000     3.305360     4
  CG3C53   CG3C52   NG2R53    CG301     9   180.000000     8.284320     2
  CG3C53   CG3C52   NG2R53    CG301     9     0.000000     4.476880     3
  CG3C53   CG3C52   NG2R53   CG3C51     9   180.000000     0.041840     2
  CG3C53   CG3C52   NG2R53   CG3C51     9   180.000000     0.627600     3
  CG3C53   CG3C52   NG3C51   CG3C51     9     0.000000     8.451680     3
  CG3C53   CG3C52   NG3C51   CG3C51     9     0.000000    21.296560     4
  CG3C53   CG3C52   NG3C51    SG3O2     9   180.000000     3.849280     2
  CG3C53   CG3C52   NG3C51    SG3O2     9   180.000000    38.994880     3
  CG3C53   CG3C52   OG3C51   CG3C52     9     0.000000    10.920240     3
  CG3C53   CG3C52   OG3C51   CG3C52     9   180.000000     2.468560     4
  CG3C53   CG3C54   NG2R52   CG2R61     9   180.000000    16.150240     2
  CG3C53   CG3C54   NG2R52   CG2R61     9   180.000000     2.217520     3
  CG3C53   CG3C54   NG2R52   CG2RC0     9   180.000000     1.046000     3
  CG3C53   CG3C54    NG3P2   CG3C54     9     0.000000     0.167360     2
  CG3C53   CG3C54    NG3P2   CG3C54     9     0.000000     4.267680     3
  CG3C53   CG3C54    NG3P2     HGP2     9     0.000000     0.334720     3
  CG3C53   CG3C54    NG3P2     HGP2     9   180.000000     0.502080     6
  CG3C53   CG3RC1   CG3RC1   CG3C54     9     0.000000     0.000000     2
  CG3C53   CG3RC1   CG3RC1   CG3C54     9   180.000000     2.008320     3
  CG3C53   CG3RC1   CG3RC1   CG3C54     9     0.000000     1.757280     6
  CG3C53   CG3RC1   CG3RC1   OG3C31     9     0.000000     2.092000     4
  CG3C53   CG3RC1   CG3RC1   OG3C51     9     0.000000     6.861760     2
  CG3C53   CG3RC1   CG3RC1   OG3C51     9     0.000000     0.209200     3
  CG3C53   CG3RC1   CG3RC1    SG311     9   180.000000     6.568880     3
  CG3C53   CG3RC1   CG3RC1     HGA1     9     0.000000     1.255200     3
  CG3C53   CG3RC1   OG3C31   CG3RC1     9     0.000000    10.250800     3
  CG3C53   CG3RC1   OG3C31   CG3RC1     9     0.000000     4.184000     4
  CG3C53   CG3RC1   OG3C51   CG3C50     9   180.000000     0.334720     2
  CG3C53   CG3RC1   OG3C51   CG3C50     9   180.000000     0.334720     3
  CG3C53   CG3RC1    SG311    CG321     9   180.000000     1.297040     1
  CG3C53   CG3RC1    SG311    CG321     9   180.000000     0.543920     3
   CG312    CG2O1    NG2S1    CG321     9     0.000000     2.426720     1
   CG312    CG2O1    NG2S1    CG321     9     0.000000     0.000000     2
   CG312    CG2O1    NG2S1     HGP1     9   180.000000    10.292640     2
   CG312    CG2O5    CG321    CG321     9     0.000000     0.000000     1
   CG312    CG2O5    CG321    CG321     9     0.000000     2.552240     2
   CG312    CG2O5    CG321    CG321     9     0.000000     1.506240     3
   CG312    CG2O5    CG321    CG321     9   180.000000     0.962320     6
   CG312    CG2O5    CG321     HGA2     9     0.000000     0.000000     3
   CG312   CG2R51   CG2R51   NG2RC0     9   180.000000    21.003680     2
   CG312   CG2R51   CG2R51    HGR52     9     0.000000     0.000000     2
   CG312   CG2R51   NG2R50   CG2RC0     9   180.000000    15.438960     2
   CG312   CG2R52   NG2R50   NG2R51     9   180.000000    22.384400     2
   CG312   CG2R61   CG2R61    NG2S3     9   180.000000     6.694400     2
   CG312   CG2R61   CG2R61    NG311     9   180.000000    10.752880     2
   CG312   CG2R61   CG2R61    HGR61     9   180.000000    10.041600     2
   CG312   CG2R61   CG2RC0   CG2RC0     9   180.000000     7.154640     2
   CG312   CG2R61   CG2RC0   NG2R51     9     0.000000     0.000000     2
   CG312   CG2R61   NG2R62   CG2R64     9   180.000000    22.802800     2
   CG312   CG2R62   CG2R62    NG2S3     9   180.000000     8.577200     2
   CG312   CG2R62   NG2R62   CG2R64     9   180.000000    17.196240     2
   CG312    CG301    CG324    NG3P1     9   180.000000     8.326160     3
   CG312    CG301    CG324     HGA2     9     0.000000     0.000000     3
   CG312    CG301    CG331     HGA3     9     0.000000     0.209200     3
   CG312    CG311    CG321    CG301     9     0.000000     0.292880     3
   CG312    CG311    CG321    CG311     9     0.000000     0.920480     3
   CG312    CG311    CG321    CG321     9     0.000000     1.422560     3
   CG312    CG311    CG321    CG321     9     0.000000     0.292880     6
   CG312    CG311    CG321    CG324     9   180.000000     0.836800     3
   CG312    CG311    CG321    OG311     9   180.000000     6.652560     1
   CG312    CG311    CG321    OG311     9     0.000000     1.799120     2
   CG312    CG311    CG321    OG311     9     0.000000     2.008320     3
   CG312    CG311    CG321     HGA2     9     0.000000     0.209200     3
   CG312    CG311    CG324    NG3P2     9     0.000000     4.727920     3
   CG312    CG311    CG324     HGA2     9     0.000000     0.209200     3
   CG312    CG311    CG331     HGA3     9     0.000000     0.209200     3
   CG312    CG312   OG3R60   CG2R61     9   180.000000     2.594080     1
   CG312    CG312   OG3R60   CG2R61     9   180.000000    18.786160     2
   CG312    CG312   OG3R60   CG2R61     9     0.000000     4.602400     3
   CG312    CG321    CG321    CG321     9     0.000000     2.133840     2
   CG312    CG321    CG321    CG321     9   180.000000     0.125520     3
   CG312    CG321    CG321    CG321     9   180.000000     2.343040     4
   CG312    CG321    CG321    CG321     9   180.000000     3.347200     5
   CG312    CG321    CG321    CG324     9   180.000000     1.799120     3
   CG312    CG321    CG321    NG311     9   180.000000     4.811600     3
   CG312    CG321    CG321     HGA2     9     0.000000     0.209200     3
   CG312    CG321    CG324    NG3P1     9   180.000000     3.640080     3
   CG312    CG321    CG324    NG3P2     9   180.000000     0.753120     3
   CG312    CG321    CG324     HGA2     9     0.000000     0.209200     3
   CG312    CG321    CG331     HGA3     9     0.000000     0.362753     3
   CG312    CG321    NG301    CG321     9   180.000000     0.794960     1
   CG312    CG321    NG301    CG321     9     0.000000     0.711280     2
   CG312    CG321    NG301    CG321     9     0.000000     4.769760     3
   CG312    CG321    NG301    CG331     9   180.000000     0.753120     1
   CG312    CG321    NG301    CG331     9     0.000000     0.251040     2
   CG312    CG321    NG301    CG331     9     0.000000     3.598240     3
   CG312    CG321    NG311    CG321     9     0.000000     5.815760     1
   CG312    CG321    NG311    CG321     9     0.000000     3.640080     2
   CG312    CG321    NG311    CG321     9     0.000000     3.263520     3
   CG312    CG321    NG311   HGPAM1     9   180.000000     0.376560     3
   CG312    CG321      CT1        C     9   180.000000     2.348898     1
   CG312    CG321      CT1        C     9   180.000000     4.127934     2
   CG312    CG321      CT1        C     9   180.000000     0.673206     3
   CG312    CG321      CT1      HB1     9     0.000000     0.820482     3
   CG312    CG321      CT1      NH1     9     0.000000     7.652118     1
   CG312    CG321      CT1      NH1     9     0.000000     2.702027     2
   CG312    CG321      CT1      NH1     9   180.000000     0.116734     3
   CG312    CG322    CG331     HGA3     9     0.000000     0.753120     3
   CG312    CG324    NG2P1    CG2N1     9     0.000000    20.292400     2
   CG312    CG324    NG2P1    CG2N1     9     0.000000     0.502080     6
   CG312    CG324    NG2P1    CG324     9   180.000000     1.422560     3
   CG312    CG324    NG3P1    CG324     9     0.000000     0.962320     3
   CG312    CG324    NG3P1    CG334     9     0.000000     0.627600     3
   CG312    CG324    NG3P1     HGP2     9     0.000000     0.251040     3
   CG322    CG2O1    NG2S1    CG321     9     0.000000    14.058240     1
   CG322    CG2O1    NG2S1    CG321     9     0.000000     0.251040     2
   CG322    CG2O1    NG2S1     HGP1     9   180.000000     2.970640     2
   CG322    CG2O5    CG324    NG3P1     9     0.000000     4.644240     1
   CG322    CG2O5    CG324    NG3P1     9     0.000000     4.058480     2
   CG322    CG2O5    CG324    NG3P1     9     0.000000     1.087840     3
   CG322    CG2O5    CG324    NG3P1     9   180.000000     0.041840     6
   CG322    CG2O5    CG324     HGA2     9     0.000000     0.000000     3
   CG322   CG2R61   CG2R61    HGR61     9   180.000000    10.041600     2
   CG322   CG2R61   NG2R60   CG2R61     9   180.000000    24.225360     2
   CG322    CG301    CG321    CG324     9     0.000000     2.008320     3
   CG322    CG301    CG321     HGA2     9     0.000000     0.209200     3
   CG322    CG301    CG331     HGA3     9     0.000000     0.209200     3
   CG322    CG301    OG311     HGP1     9     0.000000     0.334720     1
   CG322    CG301    OG311     HGP1     9     0.000000     2.175680     2
   CG322    CG301    OG311     HGP1     9     0.000000     3.807440     3
   CG322    CG311    CG321    CG324     9   180.000000    13.054080     3
   CG322    CG311    CG321     HGA2     9     0.000000     0.199577     3
   CG322    CG311    CG321      CT1     9     0.000000     3.853464     1
   CG322    CG311    CG321      CT1     9     0.000000     0.262337     2
   CG322    CG311    CG324    NG3P1     9     0.000000     6.610720     3
   CG322    CG311    CG324     HGA2     9     0.000000     0.209200     3
   CG322    CG311    CG331     HGA3     9     0.000000     0.199577     3
   CG322    CG311    OG311     HGP1     9     0.000000     1.673600     1
   CG322    CG311    OG311     HGP1     9     0.000000     3.765600     2
   CG322    CG311    OG311     HGP1     9     0.000000     1.422560     3
   CG322    CG311    OG311     HGP1     9     0.000000     0.502080     4
   CG322    CG312    CG321    CG321     9   180.000000     0.167360     1
   CG322    CG312    CG321    CG321     9   180.000000     6.861760     3
   CG322    CG312    CG321     HGA2     9     0.000000     0.000000     3
   CG322    CG321    CG321    CG324     9   180.000000     7.824080     3
   CG322    CG321    CG321    NG311     9   180.000000     0.460240     3
   CG322    CG321    CG321     HGA2     9     0.000000     0.209200     3
   CG322    CG321    CG324    NG3P1     9     0.000000     9.330320     3
   CG322    CG321    CG324     HGA2     9     0.000000     0.209200     3
   CG322    CG321    CG331     HGA3     9     0.000000     0.437228     3
   CG322    CG321    NG301    CG321     9     0.000000     1.087840     1
   CG322    CG321    NG301    CG321     9     0.000000     2.384880     2
   CG322    CG321    NG301    CG321     9   180.000000     1.338880     3
   CG322    CG321    NG301    CG321     9   180.000000     1.757280     6
   CG322    CG321    NG301    CG331     9   180.000000     4.309520     1
   CG322    CG321    NG301    CG331     9     0.000000     2.510400     2
   CG322    CG321    NG301    CG331     9     0.000000     1.171520     3
   CG322    CG321    NG301    CG331     9     0.000000     1.046000     6
   CG322    CG321    NG311    CG321     9   180.000000     0.711280     1
   CG322    CG321    NG311    CG321     9   180.000000     1.757280     2
   CG322    CG321    NG311    CG321     9   180.000000     0.585760     3
   CG322    CG321    NG311    CG321     9   180.000000     0.083680     6
   CG322    CG321    NG311   HGPAM1     9   180.000000     4.267680     3
   CG322    CG321    NG311   HGPAM1     9   180.000000     1.129680     6
   CG322    CG321      CT1        C     9     0.000000     0.836800     3
   CG322    CG321      CT1      HB1     9     0.000000     0.815880     3
   CG322    CG321      CT1      NH1     9     0.000000     0.836800     3
   CG322    CG321     CTD1        C     9     0.000000     0.836800     3
   CG322    CG321     CTD1      HB1     9     0.000000     0.815880     3
   CG322    CG321     CTD1      NH1     9     0.000000     0.836800     3
   CG322    CG324    NG3P1    CG324     9     0.000000    15.941040     3
   CG322    CG324    NG3P1    CG334     9   180.000000     1.129680     3
   CG322    CG324    NG3P1     HGP2     9   180.000000    24.643760     3
   CG322    CG324    NG3P2    CG324     9     0.000000     0.000000     1
   CG322    CG324    NG3P2    CG324     9     0.000000     5.815760     2
   CG322    CG324    NG3P2    CG324     9   180.000000     0.041840     3
   CG322    CG324    NG3P2     HGP2     9     0.000000     0.209200     3
   CG322   CG3C51   CG3C52   CG3C52     9     0.000000     3.179840     3
   CG322   CG3C51   CG3C52     HGA2     9     0.000000     0.000000     3
   CG322      CT1        C      NH1     9     0.000000     0.000000     1
   CG322      CT1        C        O     9     0.000000     5.857600     1
   CG322      CT1        C        N     9   180.000000    11.506000     2
   CG322      CT1        C        N     9     0.000000     1.255200     4
   CG322     CTD1        C      NH1     9     0.000000     0.000000     1
   CG322     CTD1        C        O     9     0.000000     5.857600     1
   OG302    CG2O2   CG2R61   CG2R61     9   180.000000     3.556400     2
   OG302    CG2O2    CG311   CG2R61     9     0.000000     1.255200     3
   OG302    CG2O2    CG311   CG2R62     9   180.000000     4.184000     1
   OG302    CG2O2    CG311   CG2R62     9     0.000000     1.255200     3
   OG302    CG2O2    CG311    CG311     9   180.000000     0.209200     6
   OG302    CG2O2    CG311    CG321     9   180.000000     0.209200     6
   OG302    CG2O2    CG311    CG331     9   180.000000     0.209200     6
   OG302    CG2O2    CG311   NG2R53     9     0.000000     0.000000     1
   OG302    CG2O2    CG311    NG2S1     9     0.000000     0.000000     1
   OG302    CG2O2    CG311    OG311     9   180.000000     1.673600     2
   OG302    CG2O2    CG311    OG311     9     0.000000     0.418400     6
   OG302    CG2O2    CG311     HGA1     9     0.000000     0.000000     1
   OG302    CG2O2    CG321   CG2R61     9     0.000000     1.255200     1
   OG302    CG2O2    CG321   CG2R61     9   180.000000     4.184000     2
   OG302    CG2O2    CG321   CG2R62     9     0.000000     1.255200     1
   OG302    CG2O2    CG321   CG2R62     9   180.000000     4.184000     2
   OG302    CG2O2    CG321    CG301     9   180.000000     2.217520     2
   OG302    CG2O2    CG321    CG321     9   180.000000     2.217520     2
   OG302    CG2O2    CG321    CG331     9   180.000000    -0.627600     1
   OG302    CG2O2    CG321    OG301     9   180.000000     0.418400     1
   OG302    CG2O2    CG321    OG301     9   180.000000     4.100320     2
   OG302    CG2O2    CG321     HGA2     9     0.000000     0.000000     3
   OG302    CG2O2    CG331     HGA3     9     0.000000     0.000000     3
   OG302    CG2O6    NG2S0    CG321     9   180.000000    16.736000     2
   OG302    CG2O6    NG2S0    CG321     9     0.000000     3.974800     4
   OG302    CG2O6    NG2S0    CG331     9   180.000000    16.736000     2
   OG302    CG2O6    NG2S0    CG331     9     0.000000     3.974800     4
   OG302    CG2O6    NG2S1    CG311     9   180.000000    16.736000     2
   OG302    CG2O6    NG2S1    CG311     9     0.000000     3.974800     4
   OG302    CG2O6    NG2S1    CG321     9   180.000000    16.736000     2
   OG302    CG2O6    NG2S1    CG321     9     0.000000     3.974800     4
   OG302    CG2O6    NG2S1    CG331     9   180.000000    16.736000     2
   OG302    CG2O6    NG2S1    CG331     9     0.000000     3.974800     4
   OG302    CG2O6    NG2S1     HGP1     9   180.000000     0.000000     2
   OG302    CG2O6    OG302    CG321     9   180.000000     0.418400     1
   OG302    CG2O6    OG302    CG321     9   180.000000    12.970400     2
   OG302    CG2O6    OG302    CG331     9   180.000000     2.301200     1
   OG302    CG2O6    OG302    CG331     9   180.000000    12.342800     2
   OG302   CG2R61   CG2R61    HGR61     9   180.000000    10.041600     2
   OG302    CG301    CG331     HGA3     9     0.000000     0.669440     3
   OG302    CG311    CG321    CG311     9   180.000000     0.669440     1
   OG302    CG311    CG321    CG311     9     0.000000     1.631760     2
   OG302    CG311    CG321    OG302     9     0.000000     0.836800     3
   OG302    CG311    CG321    OG303     9     0.000000     0.836800     3
   OG302    CG311    CG321     HGA2     9     0.000000     0.815880     3
   OG302    CG311    CG331     HGA3     9     0.000000     0.836800     3
   OG302    CG321    CG321     HGA2     9     0.000000     0.815880     3
   OG302    CG321    CG324    NG3P0     9   180.000000    13.807200     1
   OG302    CG321    CG324    NG3P0     9   180.000000    -1.673600     3
   OG302    CG321    CG324     HGP5     9     0.000000     0.815880     3
   OG302    CG321    CG331     HGA3     9     0.000000     0.815880     3
   OG302    CG321      CT1        C     9   180.000000     5.781033     2
   OG302    CG321      CT1        C     9     0.000000     0.158155     3
   OG302    CG321      CT1      NH1     9     0.000000     6.215750     1
   OG302    CG321      CT1      NH1     9   180.000000     0.012552     2
   OG302    CG321      CT1      NH1     9     0.000000     1.651843     3
   OG302    CG321      CT1      NH1     9   180.000000     0.060668     4
   OG303    CG2O2    CG321    CG331     9     0.000000     0.627600     1
   OG303    CG2O2    CG321     HGA2     9     0.000000     0.000000     3
   OG303   CG2R61   CG2R61    HGR61     9   180.000000    10.041600     2
   OG303    CG301    CG331     HGA3     9     0.000000     0.669440     3
   OG303    CG301    SG311    CG321     9     0.000000     1.663977     1
   OG303    CG301    SG311    CG321     9   180.000000     3.489456     2
   OG303    CG301    SG311    CG321     9     0.000000     0.629274     3
   OG303    CG311    CG331     HGA3     9     0.000000     0.815880     3
   OG303    CG311    OG311     HGP1     9     0.000000     9.400611     2
   OG303    CG311    OG311     HGP1     9     0.000000     2.680689     3
   OG303    CG311      CT1        C     9   180.000000     3.305360     1
   OG303    CG311      CT1        C     9   180.000000     1.631760     2
   OG303    CG311      CT1        C     9   180.000000     4.142160     3
   OG303    CG321    CG321    OG303     9     0.000000     0.815880     3
   OG303    CG321    CG321     HGA2     9     0.000000     0.815880     3
   OG303    CG321    CG324    NG3P0     9   180.000000    13.807200     1
   OG303    CG321    CG324    NG3P0     9   180.000000    -1.673600     3
   OG303    CG321    CG324    NG3P3     9   180.000000     2.928800     1
   OG303    CG321    CG324     HGA2     9     0.000000     0.815880     3
   OG303    CG321    CG324     HGP5     9     0.000000     0.815880     3
   OG303    CG321    CG331     HGA3     9     0.000000     0.669440     3
   OG303    CG321   CG3C51   CG3C51     9   180.000000    10.460000     1
   OG303    CG321   CG3C51   CG3C51     9     0.000000     1.673600     2
   OG303    CG321   CG3C51   CG3C51     9   180.000000     3.347200     3
   OG303    CG321   CG3C51   CG3C51     9   180.000000     0.836800     4
   OG303    CG321   CG3C51   CG3C52     9   180.000000     0.836800     3
   OG303    CG321   CG3C51   CG3RC1     9     0.000000     0.627600     3
   OG303    CG321   CG3C51   OG3C51     9   180.000000    14.225600     1
   OG303    CG321   CG3C51     HGA1     9     0.000000     0.815880     3
   OG303    CG321   CG3RC1   CG3C31     9   180.000000     0.627600     1
   OG303    CG321   CG3RC1   CG3C51     9     0.000000     2.092000     2
   OG303    CG321   CG3RC1   CG3RC1     9     0.000000     2.510400     1
   OG303    CG321   CG3RC1   CG3RC1     9     0.000000     1.882800     2
   OG303    CG321   CG3RC1   CG3RC1     9     0.000000     2.928800     3
   OG303    CG321      CT1        C     9     0.000000     0.836800     3
   OG303    CG321      CT1      NH1     9     0.000000     0.836800     3
   OG303   CG3C51   CG3C51    OG311     9     0.000000     0.000000     3
   OG303   CG3C51   CG3C51   OG3C51     9     0.000000     0.836800     3
   OG303   CG3C51   CG3C51   OG3C51     9   180.000000     2.510400     4
   OG303   CG3C51   CG3C51   OG3C51     9     0.000000     1.255200     5
   OG303   CG3C51   CG3C51   OG3C51     9     0.000000     2.092000     6
   OG303   CG3C51   CG3C51     FGA1     9     0.000000     0.836800     3
   OG303   CG3C51   CG3C51     HGA1     9     0.000000     0.815880     3
   OG303   CG3C51   CG3C51     HGA6     9     0.000000     0.815880     3
   OG303   CG3C51   CG3C52   CG3C51     9   180.000000     8.368000     3
   OG303   CG3C51   CG3C52   CG3C51     9     0.000000     1.673600     5
   OG303   CG3C51   CG3C52   CG3C51     9     0.000000     3.347200     6
   OG303   CG3C51   CG3C52   CG3C52     9   180.000000     2.092000     1
   OG303   CG3C51   CG3C52   CG3C52     9     0.000000     2.928800     2
   OG303   CG3C51   CG3C52   CG3C52     9     0.000000     1.673600     3
   OG303   CG3C51   CG3C52   CG3C52     9     0.000000     1.673600     5
   OG303   CG3C51   CG3C52   CG3RC1     9     0.000000     7.949600     2
   OG303   CG3C51   CG3C52   OG3C51     9     0.000000     0.836800     3
   OG303   CG3C51   CG3C52   OG3C51     9   180.000000     2.510400     4
   OG303   CG3C51   CG3C52   OG3C51     9     0.000000     1.255200     5
   OG303   CG3C51   CG3C52   OG3C51     9     0.000000     2.092000     6
   OG303   CG3C51   CG3C52     HGA2     9     0.000000     0.815880     3
   OG303   CG3C51   CG3RC1   CG3C31     9     0.000000     1.882800     2
   OG303   CG3C51   CG3RC1   CG3C31     9   180.000000     3.347200     3
   OG303   CG3C51   CG3RC1   CG3C31     9     0.000000     0.836800     4
   OG303   CG3C51   CG3RC1   CG3RC1     9     0.000000     1.882800     2
   OG303   CG3C51   CG3RC1   CG3RC1     9     0.000000     3.765600     6
   OG303   CG3C51   CG3RC1     HGA1     9     0.000000     0.627600     3
   OG303   CC3162   CC3161    NC2D1     9     0.000000     0.836800     3
   OG2D2    CG2O3    CG2O5   CG2R61     9   180.000000     1.255200     2
   OG2D2    CG2O3    CG2O5    CG321     9     0.000000     1.100810     2
   OG2D2    CG2O3    CG2O5    OG2D3     9   180.000000     1.255200     2
   OG2D2    CG2O3   CG2R51   CG2R51     9     0.000000     0.083680     2
   OG2D2    CG2O3   CG2R51   CG2R51     9     0.000000     0.376560     4
   OG2D2    CG2O3   CG2R51   CG2R53     9   180.000000     4.267680     2
   OG2D2    CG2O3   CG2R51   CG2R53     9   180.000000     0.167360     4
   OG2D2    CG2O3   CG2R51   NG2R50     9   180.000000     6.401520     2
   OG2D2    CG2O3   CG2R51   NG2R50     9   180.000000     0.251040     4
   OG2D2    CG2O3   CG2R51   NG2R50     9   180.000000     0.125520     6
   OG2D2    CG2O3   CG2R51   OG2R50     9   180.000000     7.447520     2
   OG2D2    CG2O3   CG2R51   OG2R50     9   180.000000     0.878640     4
   OG2D2    CG2O3   CG2R52   CG2R51     9   180.000000     4.267680     2
   OG2D2    CG2O3   CG2R52   CG2R51     9   180.000000     0.627600     4
   OG2D2    CG2O3   CG2R52   CG2RC0     9   180.000000     2.092000     2
   OG2D2    CG2O3   CG2R52   CG2RC0     9     0.000000     0.460240     4
   OG2D2    CG2O3   CG2R52   NG2R50     9   180.000000     3.472720     2
   OG2D2    CG2O3   CG2R52   NG2R50     9     0.000000     0.000000     4
   OG2D2    CG2O3   CG2R52   NG2R50     9     0.000000     0.920480     6
   OG2D2    CG2O3   CG2R53   NG2R50     9   180.000000     4.435040     2
   OG2D2    CG2O3   CG2R53   NG2R50     9   180.000000     0.251040     4
   OG2D2    CG2O3   CG2R53   NG2R51     9   180.000000     4.978960     2
   OG2D2    CG2O3   CG2R53   NG2R51     9     0.000000     0.460240     4
   OG2D2    CG2O3   CG2R53   SG2R50     9   180.000000     9.581360     2
   OG2D2    CG2O3   CG2R53   SG2R50     9   180.000000     0.292880     4
   OG2D2    CG2O3   CG2R61   CG2R61     9   180.000000    12.970400     2
   OG2D2    CG2O3   CG2R61   CG2R63     9   180.000000    12.970400     2
   OG2D2    CG2O3   CG2R61   CG2RC0     9   180.000000    12.970400     2
   OG2D2    CG2O3   CG2R61   NG2R62     9     0.000000     4.351360     2
   OG2D2    CG2O3   CG2R61   NG2R62     9     0.000000     2.343040     4
   OG2D2    CG2O3   CG2R62   CG2R62     9   180.000000    12.970400     2
   OG2D2    CG2O3   CG2R62   CG2R63     9   180.000000    12.970400     2
   OG2D2    CG2O3   CG2R62   NG2R61     9   180.000000     0.083680     2
   OG2D2    CG2O3   CG2R62   NG2R61     9     0.000000     0.251040     6
   OG2D2    CG2O3   CG2R62   OG3R60     9     0.000000     8.033280     2
   OG2D2    CG2O3   CG2R64   NG2R61     9   180.000000     3.640080     2
   OG2D2    CG2O3   CG2R64   NG2R62     9   180.000000     4.309520     2
   OG2D2    CG2O3    CG301    CG2O5     9     0.000000     0.794960     2
   OG2D2    CG2O3    CG301    CG321     9   180.000000     0.209200     6
   OG2D2    CG2O3    CG301    CG324     9   180.000000     3.472720     2
   OG2D2    CG2O3    CG301    CG324     9     0.000000     0.125520     6
   OG2D2    CG2O3    CG301    CG331     9   180.000000     0.209200     6
   OG2D2    CG2O3    CG301    OG301     9   180.000000     2.301200     2
   OG2D2    CG2O3    CG301    OG303     9   180.000000     2.301200     2
   OG2D2    CG2O3    CG301    OG311     9   180.000000     4.644240     2
   OG2D2    CG2O3    CG301   OG3C61     9   180.000000     2.301200     2
   OG2D2    CG2O3    CG301    SG311     9   180.000000    13.981254     1
   OG2D2    CG2O3    CG301    SG311     9   180.000000     3.218751     2
   OG2D2    CG2O3    CG301    SG311     9     0.000000    28.660818     3
   OG2D2    CG2O3    CG311   CG2DC1     9     0.000000     0.000000     1
   OG2D2    CG2O3    CG311   CG2DC1     9     0.000000     0.334720     4
   OG2D2    CG2O3    CG311   CG2DC2     9     0.000000     0.000000     1
   OG2D2    CG2O3    CG311   CG2DC2     9     0.000000     0.334720     4
   OG2D2    CG2O3    CG311    CG2O1     9     0.000000     0.021757     1
   OG2D2    CG2O3    CG311    CG2O1     9   180.000000     1.765648     2
   OG2D2    CG2O3    CG311    CG2O1     9   180.000000     0.160247     3
   OG2D2    CG2O3    CG311    CG2O2     9   180.000000     1.585736     2
   OG2D2    CG2O3    CG311    CG2O3     9   180.000000    35.735544     1
   OG2D2    CG2O3    CG311    CG2O3     9   180.000000     0.789102     2
   OG2D2    CG2O3    CG311    CG2O3     9     0.000000    12.524386     3
   OG2D2    CG2O3    CG311    CG2O5     9   180.000000     1.589920     2
   OG2D2    CG2O3    CG311   CG2R51     9     0.000000     0.000000     1
   OG2D2    CG2O3    CG311   CG2R53     9     0.000000     0.000000     1
   OG2D2    CG2O3    CG311   CG2R61     9     0.000000     0.000000     1
   OG2D2    CG2O3    CG311   CG2R62     9   180.000000    12.970400     2
   OG2D2    CG2O3    CG311    CG311     9   180.000000     0.209200     6
   OG2D2    CG2O3    CG311    CG321     9   180.000000     0.209200     6
   OG2D2    CG2O3    CG311    CG324     9   180.000000     0.209200     6
   OG2D2    CG2O3    CG311    CG331     9   180.000000     0.209200     6
   OG2D2    CG2O3    CG311    NG2D1     9     0.000000     3.347200     4
   OG2D2    CG2O3    CG311    NG2D1     9     0.000000     3.054320     6
   OG2D2    CG2O3    CG311   NG2R51     9     0.000000     0.000000     1
   OG2D2    CG2O3    CG311   NG2R53     9     0.000000     0.000000     1
   OG2D2    CG2O3    CG311    NG2S1     9   180.000000     0.000000     6
   OG2D2    CG2O3    CG311    OG301     9   180.000000     2.301200     2
   OG2D2    CG2O3    CG311    OG302     9   180.000000     2.301200     2
   OG2D2    CG2O3    CG311    OG311     9   180.000000     3.556400     2
   OG2D2    CG2O3    CG311   OG3C61     9   180.000000     2.301200     2
   OG2D2    CG2O3    CG311    SG311     9     0.000000     9.882190     1
   OG2D2    CG2O3    CG311    SG311     9   180.000000     2.545127     2
   OG2D2    CG2O3    CG311     HGA1     9   180.000000     0.209200     6
   OG2D2    CG2O3    CG314   CG2R51     9     0.000000     0.000000     1
   OG2D2    CG2O3    CG314    CG301     9   180.000000     0.209200     6
   OG2D2    CG2O3    CG314    CG302     9     0.000000     3.672297     3
   OG2D2    CG2O3    CG314    CG302     9     0.000000     2.185722     4
   OG2D2    CG2O3    CG314    CG311     9   180.000000     0.209200     6
   OG2D2    CG2O3    CG314    CG321     9   180.000000     0.209200     6
   OG2D2    CG2O3    CG314    CG331     9   180.000000     0.209200     6
   OG2D2    CG2O3    CG314   CG3C51     9   180.000000     0.209200     6
   OG2D2    CG2O3    CG314    NG3P1     9   180.000000    13.388800     2
   OG2D2    CG2O3    CG314    NG3P2     9   180.000000    13.388800     2
   OG2D2    CG2O3    CG314    NG3P3     9   180.000000    13.388800     2
   OG2D2    CG2O3    CG314     HGA1     9   180.000000     0.209200     6
   OG2D2    CG2O3    CG321    CG2O2     9   180.000000     3.469373     1
   OG2D2    CG2O3    CG321    CG2O2     9   180.000000     2.379022     2
   OG2D2    CG2O3    CG321    CG2O2     9   180.000000     6.267214     3
   OG2D2    CG2O3    CG321   CG2R61     9   180.000000     2.510400     2
   OG2D2    CG2O3    CG321   CG2R61     9     0.000000     0.418400     4
   OG2D2    CG2O3    CG321   CG2R62     9   180.000000     2.510400     2
   OG2D2    CG2O3    CG321   CG2R62     9     0.000000     0.418400     4
   OG2D2    CG2O3    CG321    CG311     9   180.000000     0.209200     6
   OG2D2    CG2O3    CG321    CG314     9   180.000000     0.209200     6
   OG2D2    CG2O3    CG321    CG321     9   180.000000     0.209200     6
   OG2D2    CG2O3    CG321    CG331     9   180.000000     0.209200     6
   OG2D2    CG2O3    CG321    NG2S1     9   180.000000     0.209200     6
   OG2D2    CG2O3    CG321    OG301     9   180.000000     5.355520     2
   OG2D2    CG2O3    CG321    OG302     9   180.000000     2.301200     2
   OG2D2    CG2O3    CG321    SG311     9   180.000000     4.394455     2
   OG2D2    CG2O3    CG321     HGA2     9   180.000000     0.209200     6
   OG2D2    CG2O3    CG322    CG321     9     0.000000     0.816298     2
   OG2D2    CG2O3    CG322     FGA1     9   180.000000     3.391969     2
   OG2D2    CG2O3    CG322     HGA6     9   180.000000     0.302922     2
   OG2D2    CG2O3    CG324    NG3P2     9   180.000000    12.133600     2
   OG2D2    CG2O3    CG324    NG3P3     9   180.000000    13.388800     2
   OG2D2    CG2O3    CG324     HGA2     9   180.000000     0.209200     6
   OG2D2    CG2O3    CG331     HGA3     9   180.000000     0.209200     6
   OG2D2    CG2O3   CG3C31   CG3C31     9   180.000000     1.129680     3
   OG2D2    CG2O3   CG3C31   CG3C31     9   180.000000     0.836800     4
   OG2D2    CG2O3   CG3C31     HGA1     9     0.000000     0.000000     3
   OG2D2    CG2O3   CG3C41   CG3C41     9   180.000000     1.589920     2
   OG2D2    CG2O3   CG3C41   CG3C41     9     0.000000     0.334720     3
   OG2D2    CG2O3   CG3C41   CG3C41     9     0.000000     0.083680     6
   OG2D2    CG2O3   CG3C41   CG3RC1     9     0.000000     1.129680     2
   OG2D2    CG2O3   CG3C41   CG3RC1     9     0.000000     0.000000     3
   OG2D2    CG2O3   CG3C41   CG3RC1     9   180.000000     0.167360     4
   OG2D2    CG2O3   CG3C41     HGA1     9     0.000000     0.000000     3
   OG2D2    CG2O3   CG3C50    CG331     9     0.000000    23.848800     3
   OG2D2    CG2O3   CG3C50    CG331     9   180.000000     2.175680     6
   OG2D2    CG2O3   CG3C50   CG3C50     9     0.000000     0.669440     3
   OG2D2    CG2O3   CG3C50   CG3C52     9     0.000000     0.669440     3
   OG2D2    CG2O3   CG3C50    NG3P3     9     0.000000     0.669440     3
   OG2D2    CG2O3   CG3C51   CG2R53     9     0.000000     0.920480     1
   OG2D2    CG2O3   CG3C51   CG2R53     9     0.000000     1.129680     2
   OG2D2    CG2O3   CG3C51   CG2RC0     9     0.000000     0.251040     1
   OG2D2    CG2O3   CG3C51   CG2RC0     9   180.000000     2.175680     2
   OG2D2    CG2O3   CG3C51   CG2RC0     9     0.000000     3.221680     4
   OG2D2    CG2O3   CG3C51   CG3C50     9     0.000000     0.669440     3
   OG2D2    CG2O3   CG3C51   CG3C51     9     0.000000     0.669440     3
   OG2D2    CG2O3   CG3C51   CG3C52     9     0.000000     0.669440     3
   OG2D2    CG2O3   CG3C51   CG3RC1     9     0.000000     0.669440     3
   OG2D2    CG2O3   CG3C51    NG2S0     9     0.000000     0.669440     3
   OG2D2    CG2O3   CG3C51   OG3C51     9     0.000000     0.585760     3
   OG2D2    CG2O3   CG3C51   OG3C51     9   180.000000     0.460240     4
   OG2D2    CG2O3   CG3C51    SG311     9   180.000000     5.355520     2
   OG2D2    CG2O3   CG3C51    SG311     9   180.000000     0.251040     4
   OG2D2    CG2O3   CG3C51    SG311     9   180.000000     0.669440     6
   OG2D2    CG2O3   CG3C51     HGA1     9     0.000000     0.669440     3
   OG2D2    CG2O3   CG3C53   CG3C52     9     0.000000     0.669440     3
   OG2D2    CG2O3   CG3C53   CG3RC1     9     0.000000     0.669440     3
   OG2D2    CG2O3   CG3C53    NG3P2     9     0.000000     0.669440     3
   OG2D2    CG2O3   CG3C53     HGA1     9     0.000000     0.669440     3
   OG2D2    CG2O3   CG3RC1   CG3C31     9   180.000000     0.334720     3
   OG2D2    CG2O3   CG3RC1   CG3C31     9     0.000000     0.292880     6
   OG2D2    CG2O3   CG3RC1   CG3RC1     9   180.000000     0.460240     3
   OG2D2    CG2O3   CG3RC1   CG3RC1     9   180.000000     0.000000     4
   OG2D2    CG2O3   CG3RC1   OG3R60     9   180.000000     8.326160     2
   OG2D2    CG2O3   CG3RC1   OG3R60     9   180.000000     0.878640     3
   OG2D2    CG2O3    NG2S0    CG311     9   180.000000     0.794960     2
   OG2D2    CG2O3    NG2S0    CG311     9   180.000000     0.041840     6
   OG2D2    CG2O3    NG2S0    CG321     9   180.000000     0.627600     1
   OG2D2    CG2O3    NG2S0    CG321     9   180.000000    13.807200     2
   OG2D2    CG2O3    NG2S0    CG321     9     0.000000     0.711280     3
   OG2D2    CG2O3    NG2S0    CG321     9   180.000000     0.962320     6
   OG2D2    CG2O3    NG2S0   CG3RC1     9   180.000000     8.284320     2
   OG2D2    CG2O3    NG2S0   CG3RC1     9   180.000000     0.502080     4
   OG2D2    CG2O3    NG2S0   CG3RC1     9   180.000000     0.000000     6
   OG2D2    CG2O3    NG2S1    CG311     9   180.000000     7.522414     2
   OG2D2    CG2O3    NG2S1    CG321     9     0.000000     6.496915     1
   OG2D2    CG2O3    NG2S1    CG321     9   180.000000     8.929911     2
   OG2D2    CG2O3    NG2S1    CG321     9     0.000000     2.026730     3
   OG2D2    CG2O3    NG2S1    CG321     9     0.000000     0.509193     6
   OG2D2    CG2O3    NG2S1     HGP1     9   180.000000     2.736754     1
   OG2D2    CG2O3    NG2S1     HGP1     9     0.000000     0.971943     3
   OG2D2    CG2O6    OG311     HGP1     9   180.000000     8.368000     2
   SG3O3    CG2O4    CG2O5    CG321     9   180.000000     9.079280     2
   SG3O3    CG2O4    CG2O5    OG2D3     9   180.000000     7.907760     2
   SG3O3   CG2R52   CG3C52   CG3C52     9   180.000000     1.840960     3
   SG3O3   CG2R52   CG3C52   CG3C52     9   180.000000     8.200640     4
   SG3O3   CG2R52   CG3C52     HGA2     9   180.000000     0.000000     3
   SG3O3   CG2R61   CG2R61    HGR61     9   180.000000     8.786400     2
   SG3O3    CG301    CG314    CG2O3     9   180.000000     3.849280     3
   SG3O3    CG301    CG314    NG3P2     9     0.000000    15.355280     1
   SG3O3    CG301    CG314    NG3P2     9     0.000000    35.898720     2
   SG3O3    CG301    CG314    NG3P2     9     0.000000    24.392720     3
   SG3O3    CG301    CG314     HGA1     9     0.000000     0.000000     3
   SG3O3    CG301    CG331     HGA3     9     0.000000     0.669440     3
   SG3O3    CG311    CG311     HGA1     9     0.000000     0.000000     3
   SG3O3    CG311    CG321   CG2R61     9   180.000000     0.376560     1
   SG3O3    CG311    CG321   CG2R61     9     0.000000     0.292880     2
   SG3O3    CG311    CG321   CG2R61     9   180.000000     0.083680     3
   SG3O3    CG311    CG321   CG2R61     9     0.000000     0.167360     4
   SG3O3    CG311    CG321    CG321     9   180.000000     0.167360     1
   SG3O3    CG311    CG321    CG321     9     0.000000     2.259360     2
   SG3O3    CG311    CG321    CG321     9   180.000000     3.472720     3
   SG3O3    CG311    CG321    CG321     9   180.000000     1.924640     6
   SG3O3    CG311    CG321    CG324     9   180.000000     3.681920     3
   SG3O3    CG311    CG321    CG324     9     0.000000     1.799120     6
   SG3O3    CG311    CG321    NG301     9   180.000000     0.585760     1
   SG3O3    CG311    CG321    NG301     9   180.000000     0.167360     2
   SG3O3    CG311    CG321    NG301     9   180.000000     3.765600     3
   SG3O3    CG311    CG321     HGA2     9     0.000000     0.669440     3
   SG3O3    CG311    CG331     HGA3     9     0.000000     0.000000     3
   SG3O3    CG311    SG311    CG321     9     0.000000     0.125520     1
   SG3O3    CG311    SG311    CG321     9     0.000000     0.878640     3
   SG3O3    CG321    CG321     HGA2     9     0.000000     0.669440     3
   SG3O3    CG321    CG324    NG3P1     9   180.000000    20.083200     1
   SG3O3    CG321    CG324    NG3P1     9   180.000000     1.882800     2
   SG3O3    CG321    CG324    NG3P2     9   180.000000     9.204800     3
   SG3O3    CG321    CG324    NG3P2     9     0.000000     1.213360     4
   SG3O3    CG321    CG324     HGA2     9     0.000000     0.669440     3
   SG3O3    CG321    CG331     HGA3     9     0.000000     0.669440     3
   SG3O3    CG321    SG3O3    CG321     9   180.000000     0.000000     1
   SG3O3    CG321    SG3O3    CG321     9     0.000000     0.794960     3
   SG3O3    CG321    SG3O3    OG2P1     9   180.000000     4.100320     1
   SG3O3    CG321    SG3O3    OG2P1     9     0.000000     6.024960     2
   SG3O3    CG321    SG3O3    OG2P1     9   180.000000     0.167360     3
   SG3O3    CG321    CG301      CT1     9   180.000000     3.924592     1
   SG3O3    CG321    CG301      CT1     9     0.000000     1.606238     2
   SG3O3    CG321    CG301      CT1     9     0.000000     0.749354     3
   SG3O3   CG3C52   NG2R53   CG2R53     9   180.000000     8.619040     3
   SG3O3   CG3C52   NG2R53   CG2R53     9     0.000000    10.543680     4
   SG3O3   CG3C52   NG2R53   CG2R61     9   180.000000     0.627600     3
   SG3O3   CG3C52   NG2R53   CG2R61     9   180.000000     0.167360     4
   OG2D5    CG2O7    NG2D1    CG331     9   180.000000     1.673600     2
   CG1N1   CG2R51   CG2R51   NG2R51     9   180.000000     9.204800     2
   CG1N1   CG2R51   CG2R51    HGR52     9   180.000000     0.000000     2
   CG1N1   CG2R51   CG2RC0   CG2R63     9   180.000000     6.694400     2
   CG1N1   CG2R51   CG2RC0   CG2RC0     9   180.000000     9.204800     2
   CG1N1   CG2R61   CG2R61   CG2R61     9   180.000000     8.368000     2
   CG1N1   CG2R61   CG2R61   CG2RC0     9   180.000000     5.439200     2
   CG1N1   CG2R61   CG2R61    CG321     9   180.000000    10.041600     2
   CG1N1   CG2R61   CG2R61   NG2R60     9   180.000000     4.184000     2
   CG1N1   CG2R61   CG2R61    HGR61     9   180.000000    10.041600     2
   CG1N1   CG2R61   CG2R61    HGR62     9   180.000000    10.041600     2
   CG1N1    CG301    CG311    CG2D1     9   180.000000    13.890880     1
   CG1N1    CG301    CG311    CG2D1     9     0.000000     2.845120     3
   CG1N1    CG301    CG311    CG321     9     0.000000    14.351120     3
   CG1N1    CG301    CG311     HGA1     9     0.000000     0.000000     3
   CG1N1    CG301    CG321    CG321     9     0.000000     2.594080     3
   CG1N1    CG301    CG321     HGA2     9     0.000000     0.000000     3
  CG2R57   CG2R51   CG2R51   NG2R51     9   180.000000    16.736000     2
  CG2R57   CG2R51   CG2R51   SG2R50     9   180.000000    35.564000     2
  CG2R57   CG2R51   CG2R51    HGR51     9   180.000000     6.276000     2
  CG2R57   CG2R51   CG2R51    HGR52     9   180.000000     6.276000     2
  CG2R57   CG2R51   CG2R52   NG2R50     9   180.000000    35.564000     2
  CG2R57   CG2R51   CG2R52    HGR52     9   180.000000    15.899200     2
  CG2R57   CG2R51   CG2RC0   CG2R61     9   180.000000    12.552000     2
  CG2R57   CG2R51   CG2RC0   CG2RC0     9   180.000000    16.736000     2
  CG2R57   CG2R51    CG321    CG2O1     9     0.000000     0.000000     2
  CG2R57   CG2R51    CG321    CG2O1     9     0.000000     7.489360     3
  CG2R57   CG2R51    CG321     HGA2     9     0.000000     0.000000     3
  CG2R57   CG2R51    CG331     HGA3     9     0.000000     0.000000     3
  CG2R57   CG2R51   CG3C52   CG3C52     9   180.000000     0.209200     3
  CG2R57   CG2R51   CG3C52     HGA2     9     0.000000     0.000000     3
  CG2R57   CG2R51   NG2R50   CG2R53     9   180.000000    58.576000     2
  CG2R57   CG2R51   NG2R51   CG2R51     9   180.000000    41.840000     2
  CG2R57   CG2R51   NG2R51   CG2RC0     9   180.000000    20.920000     2
  CG2R57   CG2R51   NG2R51    CG331     9   180.000000    46.024000     2
  CG2R57   CG2R51   NG2R51   NG2R50     9   180.000000    41.840000     2
  CG2R57   CG2R51   NG2R51     HGP1     9   180.000000     4.184000     2
  CG2R57   CG2R51   NG2R52   CG2R53     9   180.000000    50.208000     2
  CG2R57   CG2R51   NG2R52    CG324     9   180.000000     7.112800     2
  CG2R57   CG2R51   NG2R52     HGP2     9   180.000000     5.857600     2
  CG2R57   CG2R51   SG2R50   CG2R51     9   180.000000    35.564000     2
  CG2R57   CG2R51   SG2R50   CG2R53     9   180.000000    35.564000     2
  CG2R57   CG2R52    CG331     HGA3     9     0.000000     0.000000     3
  CG2R57   CG2R52   NG2R50   NG2R51     9   180.000000    50.208000     2
  CG2R57   CG2R52   NG2R50   OG2R50     9   180.000000    50.208000     2
  CG2R57   CG2R57   CG2RC0   CG2R61     9     0.000000     2.050160     2
  CG2R57   CG2R57   CG2RC0   CG2RC0     9   180.000000    27.614400     2
  CG2R57   CG2R57   CG2RC0   NG2RC0     9   180.000000     4.560560     2
  CG2R57   CG2R57   CG3C52   CG2RC0     9   180.000000     1.255200     2
  CG2R57   CG2R57   CG3C52   CG2RC0     9     0.000000     0.376560     3
  CG2R57   CG2R57   CG3C52     HGA2     9     0.000000     0.000000     3
  CG2R57   CG2R57   NG2R50   CG2R51     9   180.000000    11.464160     2
  CG2R57   CG2R57   NG2R50   CG2R53     9     0.000000     0.251040     2
  CG2R57   CG2R57   NG2R50   CG2RC0     9   180.000000    10.501840     2
  CG2R57   CG2R57   NG2R50   NG2R50     9   180.000000     4.518720     2
  CG2R57   CG2R57   NG2R50   OG2R50     9   180.000000    18.911680     2
  CG2R57   CG2R57   NG2R51   CG2RC0     9   180.000000    11.506000     2
  CG2R57   CG2R57   NG2R51     HGP1     9     0.000000     0.000000     2
  CG2R57   CG2R57   NG2R52   CG2R53     9   180.000000    15.397120     2
  CG2R57   CG2R57   NG2R52    CG324     9     0.000000     0.083680     2
  CG2R57   CG2R57   NG2R52   CG3C54     9     0.000000     0.000000     2
  CG2R57   CG2R57   NG2R52     HGP2     9     0.000000     0.041840     2
  CG2R57   CG2R57   NG2RC0   CG2R61     9     0.000000     0.585760     2
  CG2R57   CG2R57   NG2RC0   CG2RC0     9     0.000000     0.000000     2
  CG2R57   CG2R57   NG3C51    CG331     9   180.000000     8.535360     2
  CG2R57   CG2R57   NG3C51    CG331     9   180.000000     0.334720     4
  CG2R57   CG2R57   NG3C51   CG3C52     9   180.000000    21.547600     2
  CG2R57   CG2R57   OG2R50   CG2R51     9   180.000000     9.832400     2
  CG2R57   CG2R57   OG2R50   CG2R53     9   180.000000    28.409360     2
  CG2R57   CG2R57   SG2R50   CG2R51     9   180.000000     2.133840     2
  CG2R57   CG2RC0   CG2RC0   CG2R61     9   180.000000     6.276000     2
  CG2R57   CG2RC0   CG2RC0   NG2R51     9   180.000000    27.196000     2
  CG2R57   CG2RC0   NG2RC0   CG2R53     9   180.000000    33.472000     2
  CG2R57   CG2RC0   NG2RC0   CG2R61     9   180.000000     4.184000     2
  CG2R57   CG3C50   NG2R53   CG2R53     9     0.000000    11.087600     3
  CG2R57   CG3C50   NG2R53     HGP1     9   180.000000     2.133840     2
  CG2R57   CG3C50   NG2R53     HGP1     9     0.000000     1.506240     3
  CG2R57   CG3C51   CG3C52   CG3C52     9   180.000000     1.422560     3
  CG2R57   CG3C51   CG3C52   OG3C51     9   180.000000     1.046000     3
  CG2R57   CG3C51   CG3C52     HGA2     9     0.000000     0.585760     3
  CG2R57   CG3C51   CG3C53   CG3C52     9   180.000000     1.422560     3
  CG2R57   CG3C51   CG3C53    NG3P3     9   180.000000     2.510400     3
  CG2R57   CG3C51   CG3C53     HGA1     9     0.000000     0.794960     3
  CG2R57   CG3C51   NG3C51   CG2RC0     9     0.000000    15.271600     3
  CG2R57   CG3C51   NG3C51   CG2RC0     9   180.000000     1.129680     6
  CG2R57   CG3C51   NG3C51     HGP1     9   180.000000     7.405680     1
  CG2R57   CG3C51   NG3C51     HGP1     9     0.000000     2.928800     3
  CG2R57   CG3C51   OG3C51   CG2RC0     9   180.000000     0.585760     1
  CG2R57   CG3C51   OG3C51   CG2RC0     9   180.000000     0.083680     6
  CG2R57   CG3C51   OG3C51   CG3C52     9     0.000000     4.184000     2
  CG2R57   CG3C51   OG3C51   CG3C52     9     0.000000     4.225840     3
  CG2R57   CG3C51   OG3C51   CG3C52     9   180.000000     2.217520     6
  CG2R57   CG3C53    NG3P2   CG3C54     9   180.000000     7.865920     3
  CG2R57   CG3C53    NG3P2     HGP2     9     0.000000     0.418400     3
  CG2R57   CG3RC1    NG2S0    CG2O1     9     0.000000     5.062640     2
  CG2R57   CG3RC1    NG2S0    CG2O1     9   180.000000     2.845120     3
  CG2R57   CG3RC1    NG2S0   CG3C52     9     0.000000     0.041840     2
  CG2R57   CG3RC1    NG2S0   CG3C52     9   180.000000     2.217520     3
  CG2R57   NG2R50   NG2R50   NG2R50     9   180.000000    58.576000     2
  CG2R57   NG2R50   NG2R51   CG2R51     9   180.000000    50.208000     2
  CG2R57   NG2R50   NG2R51   CG2RC0     9   180.000000    35.564000     2
  CG2R57   NG2R50   NG2R51    CG331     9   180.000000     5.857600     2
  CG2R57   NG2R50   NG2R51     HGP1     9   180.000000     5.857600     2
  CG2R57   NG2R50   OG2R50   NG2R50     9   180.000000    47.028160     2
  CG2RC7   CG2R51   CG2R51    HGR51     9   180.000000    11.296800     2
  CG2RC7   CG2R51   CG2R53    OG2D1     9   180.000000     8.619040     2
  CG2RC7   CG2R51   CG2R53   OG3C51     9   180.000000     0.000000     1
  CG2RC7   CG2R51   CG2R53   OG3C51     9   180.000000    10.920240     2
  CG2RC7   CG2R51   NG2R51   NG2R50     9   180.000000    14.644000     2
  CG2RC7   CG2R51   NG2R51     HGP1     9   180.000000     4.184000     2
  CG2RC7   CG2R53    NG2D1   CG2R71     9   180.000000     0.502080     1
  CG2RC7   CG2R53    NG2D1   CG2R71     9   180.000000    21.673120     2
  CG2RC7   CG2R53    NG2D1   CG2R71     9     0.000000     1.422560     3
  CG2RC7   CG2R53    NG2D1   CG2R71     9     0.000000    10.083440     4
  CG2RC7   CG2R53    NG2D1   CG2R71     9   180.000000     3.723760     5
  CG2RC7   CG2R53    NG2D1   CG2R71     9   180.000000     3.389040     6
  CG2RC7   CG2R53   NG2R50   NG2R51     9   180.000000    10.292640     2
  CG2RC7   CG2R71   CG2R71    HGR71     9   180.000000    17.572800     2
  CG2RC7   CG2R71    NG2S1    NG3N1     9   180.000000     0.000000     1
  CG2RC7   CG2R71    NG2S1    NG3N1     9   180.000000     3.347200     2
  CG2RC7   CG2R71    NG2S1    NG3N1     9     0.000000     2.719600     4
  CG2RC7   CG2R71    NG2S1     HGP1     9   180.000000     3.430880     2
  CG2RC7   CG2RC7   NG2R50   CG2R53     9   180.000000    24.058000     2
  CG2RC7   CG2RC7   OG2R50   CG2R53     9   180.000000    24.350880     2
  CG2RC7   CG2RC7   OG3C51   CG2R53     9     0.000000     0.000000     2
  CG2RC7   CG2RC7   OG3C51   CG2R53     9   180.000000    15.271600     3
   CG302   CG2R51   CG2R51   OG2R50     9   180.000000    14.936880     2
   CG302   CG2R51   CG2R51    HGR52     9   180.000000     2.677760     2
   CG302   CG2R51   CG2RC0   CG2R61     9     0.000000     0.000000     2
   CG302   CG2R51   CG2RC0   CG2RC0     9   180.000000    17.991200     2
   CG302   CG2R52   NG2R50   NG2R51     9   180.000000     3.765600     2
   CG302   CG2R53   NG2R50   CG2RC0     9   180.000000    16.150240     2
   CG302   CG2R53   SG2R50   CG2RC0     9   180.000000    14.225600     2
   CG302   CG2R61   CG2R61    CG321     9   180.000000     8.269258     2
   CG302   CG2R61   CG2R61    CG331     9   180.000000     8.269258     2
   CG302   CG2R61   CG2R61   NG2R60     9   180.000000    14.811360     2
   CG302   CG2R61   CG2R61   NG2R61     9   180.000000    12.677520     2
   CG302   CG2R61   CG2R61   NG2R62     9   180.000000    17.530960     2
   CG302   CG2R61   CG2R61    NG2S3     9   180.000000    11.506000     2
   CG302   CG2R61   CG2R61    OG311     9   180.000000     9.665040     2
   CG302   CG2R61   CG2R61    HGR61     9   180.000000    10.041600     2
   CG302   CG2R61   CG2R61    HGR62     9   180.000000    10.041600     2
   CG302   CG2R61   CG2R61      CT1     9   180.000000     8.269258     2
   CG302   CG2R61   CG2R61     CTD1     9   180.000000     8.269258     2
   CG302   CG2R61   CG2R62   CG2R62     9   180.000000    12.970400     2
   CG302   CG2R61   CG2R62   NG2R61     9     0.000000     0.251040     2
   CG302   CG2R61   CG2R63   NG2R61     9   180.000000     4.518720     2
   CG302   CG2R61   CG2R63    SG2D1     9   180.000000     6.317840     2
   CG302   CG2R61   CG2R64   NG2R60     9   180.000000    15.982880     2
   CG302   CG2R61   CG2R64    NG2S3     9     0.000000     0.167360     2
   CG302   CG2R62   CG2R62    OG311     9   180.000000     9.288480     2
   CG302   CG2R62   CG2R62    HGR62     9   180.000000    14.141920     2
   CG302   CG2R62   NG2R61   CG2R63     9   180.000000     6.276000     2
   CG302   CG2R62   NG2R61     HGP1     9   180.000000     6.066800     2
   CG302   CG2R62   OG3R60   CG2R62     9   180.000000    16.484960     2
   CG302   CG2R64   NG2R61   CG2R63     9     0.000000     0.000000     2
   CG302   CG2R64   NG2R61     HGP1     9   180.000000     2.426720     2
   CG302   CG2R64   NG2R62   CG2R62     9   180.000000    40.542960     2
   CG302    CG301    CG321    CG2O5     9   180.000000     2.050160     3
   CG302    CG301    CG321    CG2O5     9   180.000000     0.125520     4
   CG302    CG301    CG321    CG311     9     0.000000     0.000000     2
   CG302    CG301    CG321    CG311     9   180.000000     7.112800     3
   CG302    CG301    CG321     HGA2     9   180.000000     0.209200     3
   CG302    CG301    OG311     HGP1     9     0.000000     2.803280     1
   CG302    CG301    OG311     HGP1     9     0.000000     9.372160     2
   CG302    CG301    OG311     HGP1     9   180.000000     1.255200     3
   CG302    CG301    OG311     HGP1     9   180.000000     0.083680     4
   CG302    CG301   OG3C61    CG301     9     0.000000     5.355520     1
   CG302    CG301   OG3C61    CG301     9     0.000000     0.125520     2
   CG302    CG301   OG3C61    CG301     9   180.000000     0.167360     3
   CG302    CG301   OG3C61    CG301     9     0.000000     0.585760     4
   CG302    CG311    CG311    CG321     9   180.000000     0.753120     3
   CG302    CG311    CG311    CG321     9     0.000000     0.418400     4
   CG302    CG311    CG311    CG331     9   180.000000     3.305360     3
   CG302    CG311    CG311    CG331     9   180.000000     3.347200     4
   CG302    CG311    CG311    OG311     9     0.000000     1.924640     3
   CG302    CG311    CG311     HGA1     9   180.000000     0.209200     3
   CG302    CG311    CG314    CG321     9   180.000000     7.112800     3
   CG302    CG311    CG314    CG321     9     0.000000     0.794960     4
   CG302    CG311    CG314    NG3P3     9   180.000000     3.179840     3
   CG302    CG311    CG314     HGA1     9   180.000000     0.209200     3
   CG302    CG311    CG321    CG2D1     9     0.000000     2.928800     2
   CG302    CG311    CG321    CG2D1     9   180.000000     0.585760     3
   CG302    CG311    CG321    CG2O1     9   180.000000     3.179840     3
   CG302    CG311    CG321    CG2O5     9   180.000000     1.966480     2
   CG302    CG311    CG321    CG2O5     9     0.000000     6.987280     3
   CG302    CG311    CG321    CG301     9     0.000000     0.627600     3
   CG302    CG311    CG321    CG301     9     0.000000     2.677760     4
   CG302    CG311    CG321    CG314     9     0.000000    10.292640     2
   CG302    CG311    CG321    CG314     9   180.000000     4.644240     3
   CG302    CG311    CG321    CG321     9   180.000000     1.757280     3
   CG302    CG311    CG321    CG321     9     0.000000     1.966480     4
   CG302    CG311    CG321    CG324     9   180.000000     1.046000     3
   CG302    CG311    CG321    CG324     9     0.000000     5.857600     4
   CG302    CG311    CG321   CG3RC1     9     0.000000     0.167360     2
   CG302    CG311    CG321   CG3RC1     9     0.000000     0.962320     3
   CG302    CG311    CG321    NG2S1     9     0.000000     0.000000     2
   CG302    CG311    CG321    NG2S1     9   180.000000     2.510400     3
   CG302    CG311    CG321     HGA2     9   180.000000     0.193301     3
   CG302    CG311    CG324    NG3P2     9   180.000000     0.000000     3
   CG302    CG311    CG324     HGA2     9   180.000000     0.209200     3
   CG302    CG311    CG331     HGA3     9   180.000000     0.193301     3
   CG302    CG311    NG311    CG311     9   180.000000     0.543920     1
   CG302    CG311    NG311    CG311     9     0.000000     1.506240     2
   CG302    CG311    NG311    CG311     9     0.000000     0.418400     3
   CG302    CG311    NG311    CG311     9     0.000000     0.000000     4
   CG302    CG311    NG311   HGPAM1     9     0.000000     3.514560     3
   CG302    CG314    CG321    CG324     9   180.000000     0.292880     3
   CG302    CG314    CG321     HGA2     9   180.000000     0.209200     3
   CG302    CG314    NG2P1    CG2N1     9     0.000000    15.690000     2
   CG302    CG314    NG2P1    CG2N1     9   180.000000     9.204800     6
   CG302    CG314    NG2P1     HGP2     9   180.000000     5.815760     3
   CG302    CG314    NG2P1     HGP2     9   180.000000     2.175680     6
   CG302    CG314    NG3P3     HGP2     9   180.000000     1.219636     3
   CG302    CG321    OG311     HGP1     9     0.000000     1.673600     1
   CG302    CG321    OG311     HGP1     9     0.000000     3.765600     2
   CG302    CG321    OG311     HGP1     9     0.000000     1.422560     3
   CG302    CG321    OG311     HGP1     9     0.000000     0.502080     4
   CG302   CG3C50   CG3C52   CG3C52     9     0.000000     2.845120     3
   CG302   CG3C50   CG3C52   CG3C52     9   180.000000     0.209200     6
   CG302   CG3C50   CG3C52     HGA2     9     0.000000     0.000000     3
   CG302   CG3C50    NG321   HGPAM2     9   180.000000     1.924640     1
   CG302   CG3C50    NG321   HGPAM2     9     0.000000     7.824080     2
   CG302   CG3C50    NG321   HGPAM2     9     0.000000     3.430880     3
   CG302   CG3C50    OG311     HGP1     9     0.000000     7.154640     1
   CG302   CG3C50    OG311     HGP1     9     0.000000     4.686080     2
   CG302   CG3C50    OG311     HGP1     9     0.000000     2.384880     3
   CG302   CG3C51   CG3C51   CG3C54     9     0.000000    14.936880     3
   CG302   CG3C51   CG3C51   CG3C54     9   180.000000    28.200160     4
   CG302   CG3C51   CG3C51    NG321     9     0.000000     2.510400     3
   CG302   CG3C51   CG3C51    NG321     9     0.000000     1.171520     4
   CG302   CG3C51   CG3C51     HGA1     9     0.000000     0.000000     3
   CG302   CG3C51   CG3C54    NG3P2     9   180.000000    31.254480     3
   CG302   CG3C51   CG3C54    NG3P2     9   180.000000    10.250800     4
   CG302   CG3C51   CG3C54     HGA2     9     0.000000     0.000000     3
   CG302   CG3RC1   CG3RC1   CG3C52     9   180.000000     1.087840     3
   CG302   CG3RC1   CG3RC1    SG3O2     9     0.000000     2.845120     3
   CG302   CG3RC1   CG3RC1     HGA1     9     0.000000     0.000000     3
  CG3C54   CG2R51   CG2R51   CG3C54     9   180.000000    48.116000     2
  CG3C54   CG2R51   CG2R51   NG2R50     9     0.000000     2.092000     2
  CG3C54   CG2R51   CG2R51   SG2R50     9     0.000000     4.644240     2
  CG3C54   CG2R51   CG2R51    HGR51     9   180.000000    17.782000     2
  CG3C54   CG2R51   CG2R61   CG2R66     9   180.000000    13.514320     2
  CG3C54   CG2R51   CG2R61   CG2R66     9   180.000000     1.297040     4
  CG3C54   CG2R51   CG2R62   CG2R62     9   180.000000     4.100320     2
  CG3C54   CG2R51    CG331     HGA3     9     0.000000     1.464400     3
  CG3C54   CG2R51   NG2R50   CG2R53     9   180.000000    22.970160     2
  CG3C54   CG2R51   SG2R50   CG2R53     9     0.000000     6.861760     2
  CG3C54   CG2R52    CG331     HGA3     9     0.000000     1.464400     3
  CG3C54   CG2R52   NG2R50   CG2R53     9   180.000000    51.044800     2
  CG3C54   CG2RC0   CG2RC0   CG3C54     9   180.000000    46.191360     2
  CG3C54   CG2RC0   CG2RC0   NG2R62     9   180.000000    28.534880     2
  CG3C54   CG2RC0   NG2R62   CG2R64     9   180.000000    27.949120     2
  CG3C54   CG3C31   CG3C31     HGA1     9   180.000000     0.836800     5
  CG3C54   CG3C31   CG3C31     HGA2     9   180.000000     0.836800     5
  CG3C54   CG3C31   CG3C52   CG3C54     9   180.000000     0.543920     3
  CG3C54   CG3C31   CG3C52   CG3C54     9     0.000000     1.422560     4
  CG3C54   CG3C31   CG3C52     HGA2     9     0.000000     0.000000     1
  CG3C54   CG3C31   CG3C52     HGA2     9     0.000000     0.000000     3
  CG3C54   CG3C50   CG3C51    CG331     9   180.000000     2.468560     2
  CG3C54   CG3C50   CG3C51    CG331     9   180.000000     0.125520     3
  CG3C54   CG3C50   CG3C51   CG3C54     9   180.000000     0.000000     3
  CG3C54   CG3C50   CG3C51   CG3C54     9   180.000000     0.000000     4
  CG3C54   CG3C50   CG3C51   CG3C54     9   180.000000     0.000000     6
  CG3C54   CG3C50   CG3C51     HGA1     9     0.000000     0.836800     3
  CG3C54   CG3C50   CG3C52   CG3C52     9   180.000000     1.004160     4
  CG3C54   CG3C50   CG3C52   CG3C52     9   180.000000     7.070960     6
  CG3C54   CG3C50   CG3C52   CG3C54     9     0.000000     0.000000     3
  CG3C54   CG3C50   CG3C52   CG3C54     9   180.000000     2.886960     4
  CG3C54   CG3C50   CG3C52   CG3C54     9   180.000000     2.719600     6
  CG3C54   CG3C50   CG3C52     HGA2     9     0.000000     0.000000     3
  CG3C54   CG3C50   NG2R52   CG2R53     9     0.000000     4.016640     2
  CG3C54   CG3C50   NG2R52   CG2R53     9   180.000000     4.644240     3
  CG3C54   CG3C50   NG2R52    CG334     9     0.000000     0.125520     2
  CG3C54   CG3C50   NG2R52    CG334     9   180.000000     1.087840     3
  CG3C54   CG3C50   NG3C51    CG331     9   180.000000     1.799120     3
  CG3C54   CG3C50   NG3C51   CG3C52     9     0.000000     3.723760     3
  CG3C54   CG3C50   NG3C51   CG3C52     9     0.000000     0.878640     4
  CG3C54   CG3C51   CG3C51   CG3C54     9   180.000000     1.548080     3
  CG3C54   CG3C51   CG3C51   CG3C54     9   180.000000     0.125520     6
  CG3C54   CG3C51   CG3C51    NG301     9   180.000000     4.058480     2
  CG3C54   CG3C51   CG3C51    NG301     9     0.000000    10.836560     3
  CG3C54   CG3C51   CG3C51    NG321     9     0.000000    25.815280     3
  CG3C54   CG3C51   CG3C51    OG311     9     0.000000     0.585760     3
  CG3C54   CG3C51   CG3C51     FGA1     9   180.000000     6.945440     2
  CG3C54   CG3C51   CG3C51     FGA1     9     0.000000     6.527040     3
  CG3C54   CG3C51   CG3C51     HGA1     9     0.000000     0.836800     3
  CG3C54   CG3C51   CG3C51     HGA6     9     0.000000     0.836800     3
  CG3C54   CG3C51   CG3C52   CG3C53     9     0.000000     0.669440     3
  CG3C54   CG3C51   CG3C52   CG3C54     9   180.000000     1.548080     3
  CG3C54   CG3C51   CG3C52   CG3C54     9   180.000000     0.125520     6
  CG3C54   CG3C51   CG3C52     HGA2     9     0.000000     0.669440     3
  CG3C54   CG3C51   CG3C53   CG3C54     9   180.000000     1.548080     3
  CG3C54   CG3C51   CG3C53   CG3C54     9   180.000000     0.125520     6
  CG3C54   CG3C51   CG3C53    NG3P3     9     0.000000     1.129680     3
  CG3C54   CG3C51   CG3C53    NG3P3     9   180.000000     1.589920     4
  CG3C54   CG3C51   CG3C53     HGA1     9     0.000000     0.836800     3
  CG3C54   CG3C51   NG2R51   CG2R51     9   180.000000     0.083680     4
  CG3C54   CG3C51   NG2R51   CG2R51     9     0.000000     3.179840     6
  CG3C54   CG3C51   NG2R51   CG2R53     9     0.000000     0.041840     3
  CG3C54   CG3C51   NG2R51   CG2R53     9   180.000000     0.669440     6
  CG3C54   CG3C51    NG301    CG321     9   180.000000     5.732080     1
  CG3C54   CG3C51    NG301    CG321     9     0.000000     1.297040     3
  CG3C54   CG3C51    NG301    CG321     9   180.000000     0.753120     6
  CG3C54   CG3C51    NG321   HGPAM2     9     0.000000     7.363840     3
  CG3C54   CG3C51   NG3C51   CG2RC0     9     0.000000     4.225840     3
  CG3C54   CG3C51   NG3C51   CG3C52     9     0.000000     3.138000     3
  CG3C54   CG3C51    OG311     HGP1     9     0.000000     1.213360     1
  CG3C54   CG3C51    OG311     HGP1     9     0.000000     2.594080     2
  CG3C54   CG3C51    OG311     HGP1     9     0.000000     0.209200     3
  CG3C54   CG3C52   CG3C52   CG3C54     9   180.000000     1.548080     3
  CG3C54   CG3C52   CG3C52   CG3C54     9   180.000000     0.125520     6
  CG3C54   CG3C52   CG3C52   CG3RC1     9     0.000000     1.673600     6
  CG3C54   CG3C52   CG3C52   NG3C51     9     0.000000     0.167360     3
  CG3C54   CG3C52   CG3C52     HGA2     9     0.000000     0.669440     3
  CG3C54   CG3C52   CG3C53   CG3C54     9   180.000000     1.548080     3
  CG3C54   CG3C52   CG3C53   CG3C54     9   180.000000     0.125520     6
  CG3C54   CG3C52   CG3C53   NG2R52     9     0.000000     7.280160     2
  CG3C54   CG3C52   CG3C53   NG2R52     9     0.000000     3.263520     3
  CG3C54   CG3C52   CG3C53     HGA1     9     0.000000     0.794960     3
  CG3C54   CG3C52   NG3C51    CG331     9   180.000000     0.083680     3
  CG3C54   CG3C52   NG3C51   CG3C54     9   180.000000     6.610720     3
  CG3C54   CG3C52   NG3C51     HGP1     9     0.000000     6.903600     1
  CG3C54   CG3C52   NG3C51     HGP1     9     0.000000     3.096160     3
  CG3C54   CG3C52    SG311   CG3C53     9     0.000000     5.020800     1
  CG3C54   CG3C52    SG311   CG3C53     9   180.000000     4.100320     3
  CG3C54   CG3C52    SG311   CG3C53     9     0.000000     4.937120     4
  CG3C54   CG3C53   NG2R52   CG2R51     9   180.000000     1.046000     3
  CG3C54   CG3C53   NG2R52   CG2R53     9   180.000000     1.046000     3
  CG3C54   CG3C53   NG2R52   CG2RC0     9   180.000000     1.046000     3
  CG3C54   CG3C53   NG2R52     HGP2     9     0.000000     2.510400     3
  CG3C54   CG3C53    NG3P3     HGP2     9     0.000000     0.753120     3
  CG3C54   CG3C54   NG2R52   CG2R53     9   180.000000     1.046000     3
  CG3C54   CG3C54   NG2R52   CG2R57     9   180.000000     1.046000     3
  CG3C54   CG3C54   NG2R52   CG2R61     9   180.000000    12.259120     2
  CG3C54   CG3C54   NG2R52   CG2R61     9     0.000000     5.188160     3
  CG3C54   CG3C54   NG2R52   CG2R63     9     0.000000     1.046000     2
  CG3C54   CG3C54   NG2R52   CG2R63     9   180.000000     1.046000     3
  CG3C54   CG3C54   NG2R52   CG2RC0     9   180.000000     1.046000     3
  CG3C54   CG3C54   NG2R52    CG334     9     0.000000    10.794720     2
  CG3C54   CG3C54   NG2R52     HGP2     9     0.000000     2.510400     3
  CG3C54   CG3C54   NG2RC0   CG2R62     9     0.000000     0.000000     2
  CG3C54   CG3C54   NG2RC0   CG2R62     9     0.000000    16.401280     3
  CG3C54   CG3C54   NG2RC0   CG2RC0     9   180.000000     0.000000     2
  CG3C54   CG3C54   NG2RC0   CG2RC0     9     0.000000     5.271840     3
  CG3C54   CG3RC1   CG3RC1   CG3C54     9   180.000000     7.991440     3
  CG3C54   CG3RC1   CG3RC1   CG3C54     9   180.000000     0.585760     4
  CG3C54   CG3RC1   CG3RC1     HGA1     9     0.000000     1.255200     3
  NG2R57   CG2R51   CG2R51    HGR51     9   180.000000    14.644000     2
  NG2R57   CG2R53   CG3C53   CG3C52     9     0.000000     0.167360     2
  NG2R57   CG2R53   CG3C53   CG3C52     9   180.000000     1.129680     3
  NG2R57   CG2R53   CG3C53    NG3P3     9     0.000000     2.092000     2
  NG2R57   CG2R53   CG3C53    NG3P3     9     0.000000     8.660880     3
  NG2R57   CG2R53   CG3C53     HGA1     9   180.000000     0.000000     3
  NG2R57   CG2R53   NG2R50   NG2R50     9   180.000000    58.576000     2
  NG2R57   CG2R57   NG2R50   CG2R51     9   180.000000     1.757280     2
  NG2R57   CG2R57   NG2R50   CG2R53     9   180.000000    11.715200     2
  NG2R57   CG2R57   NG2R50   NG2R50     9     0.000000     0.334720     2
  NG2R57   CG2R57   NG2R50   NG2R51     9   180.000000    18.953520     2
  NG2R57   CG2R57   NG2R51    CG331     9   180.000000    19.957680     2
  NG2R57   CG2R57   NG2R51   NG2R50     9   180.000000    36.693680     2
  NG2R57   CG2R57   OG2R50   CG2R51     9   180.000000    30.543200     2
  NG2R57   CG2R57    SG311   CG3C52     9   180.000000     1.380720     1
  NG2R57   CG2R57    SG311   CG3C52     9   180.000000    15.104240     2
  NG2R57   CG3C52   CG3C52     HGA2     9     0.000000     0.000000     3
  NG2RC0   CG2R51   CG2R51   SG2R50     9   180.000000    15.606320     2
  NG2RC0   CG2R51   CG2R51    HGR51     9   180.000000    15.480800     2
  NG2RC0   CG2R51   CG2R51    HGR52     9   180.000000    15.480800     2
  NG2RC0   CG2R51   CG2RC0   CG2R61     9   180.000000     6.276000     2
  NG2RC0   CG2R51   CG2RC0   NG2RC0     9   180.000000    34.183280     2
  NG2RC0   CG2R51    CG311    CG321     9     0.000000     1.338880     3
  NG2RC0   CG2R51    CG311     HGA1     9     0.000000     1.338880     3
  NG2RC0   CG2R51    CG321    CG311     9     0.000000     1.338880     3
  NG2RC0   CG2R51    CG321    CG321     9     0.000000     1.338880     3
  NG2RC0   CG2R51    CG321    OG311     9     0.000000     0.167360     3
  NG2RC0   CG2R51    CG321    OG311     9   180.000000     0.920480     6
  NG2RC0   CG2R51    CG321     HGA2     9     0.000000     1.338880     3
  NG2RC0   CG2R51    CG324    NG3P3     9     0.000000    16.233920     1
  NG2RC0   CG2R51    CG324    NG3P3     9     0.000000     1.297040     2
  NG2RC0   CG2R51    CG324    NG3P3     9     0.000000     5.062640     3
  NG2RC0   CG2R51    CG324     HGA2     9     0.000000     1.338880     3
  NG2RC0   CG2R51    CG331     HGA3     9     0.000000     0.794960     3
  NG2RC0   CG2R51   CG3C52   CG3C52     9     0.000000     0.669440     2
  NG2RC0   CG2R51   CG3C52   CG3C52     9     0.000000     9.706880     3
  NG2RC0   CG2R51   CG3C52     HGA2     9     0.000000     0.000000     3
  NG2RC0   CG2R53   CG2R61   CG2R61     9   180.000000     2.970640     2
  NG2RC0   CG2R53   CG2R61   CG2R61     9     0.000000     0.292880     4
  NG2RC0   CG2R53    CG321    CG1N1     9   180.000000     0.962320     1
  NG2RC0   CG2R53    CG321    CG1N1     9     0.000000     1.171520     2
  NG2RC0   CG2R53    CG321    CG1N1     9   180.000000     1.380720     3
  NG2RC0   CG2R53    CG321    CG1N1     9     0.000000     0.000000     6
  NG2RC0   CG2R53    CG321     HGA2     9     0.000000     0.794960     3
  NG2RC0   CG2R53   NG2R50   CG2R51     9   180.000000    58.576000     2
  NG2RC0   CG2R53   NG2R50   CG2R57     9   180.000000    58.576000     2
  NG2RC0   CG2R53   NG2R50   NG2R50     9   180.000000    58.576000     2
  NG2RC0   CG2R53   NG2R51    CG331     9   180.000000    13.932720     2
  NG2RC0   CG2R53   NG2R51   NG2R50     9     0.000000     0.000000     2
  NG2RC0   CG2R57   CG2R57   OG2R50     9     0.000000     3.849280     2
  NG2RC0   CG2R57   CG2R57   OG2R50     9   180.000000     0.167360     3
  NG2RC0   CG2R57   NG2R50   CG2R51     9   180.000000    52.258160     2
  NG2RC0   CG2R61   CG2R61    HGR61     9   180.000000     3.347200     2
  NG2RC0   CG2R61   CG2R61    HGR62     9   180.000000     3.347200     2
  NG2RC0   CG2R61   CG2R66   CG2R61     9   180.000000     6.276000     2
  NG2RC0   CG2R61   CG2R66     FGR1     9   180.000000    30.919760     2
  NG2RC0   CG2R61   CG2R67   CG2R61     9   180.000000    24.936640     2
  NG2RC0   CG2R61   CG2R67   NG2R67     9   180.000000    10.167120     2
  NG2RC0   CG2R61    CG311    CG321     9     0.000000     0.711280     2
  NG2RC0   CG2R61    CG311    CG321     9     0.000000     4.727920     3
  NG2RC0   CG2R61    CG311     HGA1     9     0.000000     0.000000     6
  NG2RC0   CG2R62   CG2R62    HGR63     9   180.000000    29.288000     2
  NG2RC0   CG2R63   CG2RC0   CG2RC0     9   180.000000     0.836800     2
  NG2RC0   CG2R63   CG2RC0   NG2R50     9   180.000000     8.368000     2
  NG2RC0   CG2R63   NG2R62   CG2R64     9   180.000000     2.510400     2
  NG2RC0   CG2R64   NG2R62   CG2R64     9   180.000000     8.368000     2
  NG2RC0   CG2R64    SG311    CG331     9     0.000000     6.066800     1
  NG2RC0   CG2R67   NG2RC0   CG2R51     9   180.000000    42.467600     2
  NG2RC0   CG2R67   NG2RC0   CG2R61     9   180.000000    23.053840     2
  NG2RC0   CG2R67   NG2RC0   CG2R62     9     0.000000     0.000000     2
  NG2RC0   CG2R67   NG2RC0   CG2RC0     9   180.000000    43.639120     2
  NG2RC0   CG2RC0   CG3C52   CG3C52     9     0.000000     1.297040     2
  NG2RC0   CG2RC0   CG3C52   CG3C52     9     0.000000    12.886720     3
  NG2RC0   CG2RC0   CG3C52     HGA2     9     0.000000     0.000000     3
  NG2RC0   CG2RC0   NG2R50   CG2R51     9   180.000000    20.920000     2
  NG2RC0   CG2RC0   NG2R50   CG2R53     9   180.000000    20.920000     2
  NG2RC0   CG2RC0   NG2R50   NG2R50     9   180.000000    46.651600     2
  NG2RC0   CG2RC0   NG2R50   NG2R51     9   180.000000    27.028640     2
  NG2RC0   CG2RC0   NG2R52   CG2R51     9     0.000000     0.502080     2
  NG2RC0   CG2RC0   NG2R52   CG2R63     9     0.000000     0.000000     2
  NG2RC0   CG2RC0   NG2R52   CG3C54     9     0.000000     0.000000     2
  NG2RC0   CG2RC0   NG2R52    NG3N1     9   180.000000    16.610480     2
  NG2RC0   CG2RC0   NG2R61   CG2R63     9   180.000000     0.000000     2
  NG2RC0   CG2RC0   NG2R61   CG2RC0     9   180.000000     0.000000     2
  NG2RC0   CG2RC0   NG2R61    CG324     9   180.000000    17.740160     2
  NG2RC0   CG2RC0   NG2R61    CG331     9   180.000000     0.836800     2
  NG2RC0   CG2RC0   NG2R61     HGP1     9   180.000000     2.510400     2
  NG2RC0   CG2RC0   NG2R62   CG2R64     9   180.000000    11.254960     2
  NG2RC0   CG2RC0   SG2R50   CG2R51     9   180.000000    22.802800     2
  NG2RC0   CG3C54   CG3C54     HGA2     9     0.000000     0.000000     3
   NG3P1   CG2R51   CG2R51    HGR51     9   180.000000    29.288000     2
   NG3P1   CG2R51    CG331     HGA3     9     0.000000     1.171520     3
   NG3P1   CG2R61   CG2R61    HGR61     9   180.000000     1.966480     2
   NG3P1    CG301    CG331     HGA3     9     0.000000     0.836800     3
   NG3P1    CG314    CG321    CG311     9     0.000000     0.836800     3
   NG3P1    CG314    CG321    CG321     9     0.000000     0.836800     3
   NG3P1    CG314    CG321    CG322     9   180.000000     3.891120     3
   NG3P1    CG314    CG321    NG2S0     9     0.000000     0.836800     3
   NG3P1    CG314    CG321    NG311     9   180.000000     1.213360     1
   NG3P1    CG314    CG321    NG311     9   180.000000     2.301200     3
   NG3P1    CG314    CG321    NG311     9   180.000000     0.083680     4
   NG3P1    CG314    CG321   OG3C61     9     0.000000     3.347200     3
   NG3P1    CG314    CG321     HGA2     9     0.000000     0.836800     3
   NG3P1    CG314    CG331     HGA3     9     0.000000     0.836800     3
   NG3P1    CG314    OG311     HGP1     9     0.000000     4.978960     2
   NG3P1    CG314    OG311     HGP1     9   180.000000     0.920480     3
   NG3P1    CG314    OG311     HGP1     9     0.000000     4.058480     4
   NG3P1    CG324    CG324     HGA2     9     0.000000     0.836800     3
   NG3P1    CG324    CG331     HGA3     9     0.000000     0.836800     3
   NG3P1    CG324   CG3C31   CG3C31     9     0.000000     0.836800     3
   NG3P1    CG324   CG3C31    NG311     9   180.000000     0.083680     3
   NG3P1    CG324   CG3C31   OG3C61     9     0.000000     2.301200     1
   NG3P1    CG324   CG3C31   OG3C61     9   180.000000     0.000000     3
   NG3P1    CG324   CG3C41    CG2O4     9     0.000000     3.681920     3
   NG3P1    CG324   CG3C41    CG2O4     9     0.000000     2.008320     4
   NG3P1    CG324   CG3C41    CG311     9   180.000000     0.209200     3
   NG3P1    CG324   CG3C41    CG321     9     0.000000     4.727920     3
   NG3P1    CG324   CG3C41   CG3C41     9   180.000000     4.309520     3
   NG3P1    CG324   CG3C41   CG3C41     9   180.000000     1.171520     4
   NG3P1    CG324   CG3C41   OG3C51     9     0.000000     0.251040     1
   NG3P1    CG324   CG3C41   OG3C51     9   180.000000     2.384880     3
   NG3P1    CG324   CG3C50    CG311     9   180.000000     0.794960     3
   NG3P1    CG324   CG3C50   CG3C52     9     0.000000     0.753120     2
   NG3P1    CG324   CG3C50   CG3C52     9   180.000000     0.627600     3
   NG3P1    CG324   CG3C50   OG3C51     9   180.000000     0.711280     1
   NG3P1    CG324   CG3C50   OG3C51     9   180.000000    19.120880     3
   NG3P1    CG324   CG3RC1   CG3C52     9     0.000000     0.000000     2
   NG3P1    CG324   CG3RC1   CG3C52     9     0.000000     1.213360     3
   NG3P1    CG324   CG3RC1   CG3C53     9     0.000000     4.142160     3
   NG3P1    CG324   CG3RC1     HGA1     9     0.000000     0.000000     3
   NG3P1   CG3C31   CG3C31     HGA2     9   180.000000     0.000000     5
   NG3P1   CG3C41   CG3C41     HGA2     9     0.000000     0.000000     3
   NG3P1   CG3C50   CG3C52   CG3C52     9     0.000000     0.585760     3
   NG3P1   CG3C50   CG3C52   OG3C51     9     0.000000     6.694400     3
   NG3P1   CG3C50   CG3C52   OG3C51     9   180.000000     3.054320     4
   NG3P1   CG3C50   CG3C52     HGA2     9     0.000000     0.585760     3
   NG3P2   CG2R51   CG2R51    HGR51     9   180.000000    29.288000     2
   NG3P2   CG2R51    NG321   HGPAM2     9   180.000000     1.673600     2
   NG3P2   CG2R51    NG321   HGPAM2     9     0.000000     0.878640     6
   NG3P2    CG301    CG321    CG311     9     0.000000     0.836800     3
   NG3P2    CG301    CG321     HGA2     9     0.000000     0.836800     3
   NG3P2    CG301    CG331     HGA3     9     0.000000     0.836800     3
   NG3P2    CG314    CG314    NG3P3     9   180.000000     1.297040     3
   NG3P2    CG314    CG314    NG3P3     9   180.000000     1.004160     4
   NG3P2    CG314    CG314     HGA1     9     0.000000     0.836800     3
   NG3P2    CG314    CG321    CG2O5     9     0.000000     0.836800     3
   NG3P2    CG314    CG321   CG2R51     9     0.000000     0.836800     3
   NG3P2    CG314    CG321    CG311     9     0.000000     0.836800     3
   NG3P2    CG314    CG321    CG314     9   180.000000     0.000000     3
   NG3P2    CG314    CG321    CG321     9     0.000000     0.815880     3
   NG3P2    CG314    CG321    CG324     9   180.000000     4.016640     3
   NG3P2    CG314    CG321    CG324     9   180.000000     0.167360     4
   NG3P2    CG314    CG321    NG2S1     9     0.000000     0.815880     3
   NG3P2    CG314    CG321    OG311     9     0.000000     0.836800     3
   NG3P2    CG314    CG321    SG3O3     9   180.000000    12.342800     1
   NG3P2    CG314    CG321    SG3O3     9   180.000000     4.393200     2
   NG3P2    CG314    CG321    SG3O3     9   180.000000    40.877680     3
   NG3P2    CG314    CG321     HGA2     9     0.000000     0.815880     3
   NG3P2    CG314    CG324    NG3P1     9   180.000000     0.083680     2
   NG3P2    CG314    CG324    NG3P1     9     0.000000     0.209200     3
   NG3P2    CG314    CG324     HGA2     9     0.000000     0.836800     3
   NG3P2    CG314    CG331     HGA3     9     0.000000     0.836800     3
   NG3P2    CG314    NG311    CG311     9     0.000000     1.715440     1
   NG3P2    CG314    NG311    CG311     9     0.000000     2.008320     2
   NG3P2    CG314    NG311    CG311     9     0.000000     2.217520     3
   NG3P2    CG314    NG311   HGPAM1     9   180.000000     4.100320     2
   NG3P2    CG314    NG311   HGPAM1     9     0.000000     0.585760     3
   NG3P2    CG324    CG331     HGA3     9     0.000000     0.836800     3
   NG3P2    CG324   CG3C31   CG2R61     9     0.000000     6.903600     3
   NG3P2    CG324   CG3C31   CG3C31     9     0.000000     0.836800     3
   NG3P2    CG324   CG3C31    NG301     9   180.000000     6.568880     3
   NG3P2    CG324   CG3C41   CG2R61     9     0.000000     0.920480     3
   NG3P2    CG324   CG3C41   CG2R61     9     0.000000     3.430880     4
   NG3P2    CG324   CG3C41    CG321     9     0.000000     4.686080     3
   NG3P2    CG324   CG3C41   CG3C41     9   180.000000     0.836800     3
   NG3P2    CG324   CG3C41   CG3C41     9     0.000000     0.543920     4
   NG3P2    CG324   CG3C50    CG321     9     0.000000     0.794960     3
   NG3P2    CG324   CG3C50   CG3C52     9   180.000000     5.020800     3
   NG3P2    CG324   CG3C50   NG3C51     9   180.000000    15.397120     1
   NG3P2    CG324   CG3C50   NG3C51     9   180.000000     1.589920     3
   NG3P2    CG324   CG3RC1   CG2RC0     9     0.000000     2.092000     2
   NG3P2    CG324   CG3RC1   CG2RC0     9   180.000000     3.849280     4
   NG3P2    CG324   CG3RC1   CG3C31     9   180.000000     1.506240     1
   NG3P2    CG324   CG3RC1   CG3C31     9     0.000000     1.840960     2
   NG3P2    CG324   CG3RC1   CG3C41     9     0.000000     0.543920     3
   NG3P2    CG324   CG3RC1   CG3RC1     9     0.000000     0.000000     1
   NG3P2    CG324   CG3RC1   CG3RC1     9     0.000000     6.903600     2
   NG3P2    CG324   CG3RC1   CG3RC1     9     0.000000     2.259360     3
   NG3P2    CG324   CG3RC1   CG3RC1     9     0.000000     0.711280     4
   NG3P2    CG324   CG3RC1   OG3C51     9     0.000000     0.000000     1
   NG3P2    CG324   CG3RC1   OG3C51     9   180.000000     0.083680     2
   NG3P2    CG324   CG3RC1     HGA1     9     0.000000     0.000000     3
   NG3P2    CG324    NG301    CG321     9     0.000000     1.715440     1
   NG3P2    CG324    NG301    CG321     9     0.000000     2.008320     2
   NG3P2    CG324    NG301    CG321     9     0.000000     2.217520     3
   NG3P2    CG324    NG301    CG331     9     0.000000     1.715440     1
   NG3P2    CG324    NG301    CG331     9     0.000000     2.008320     2
   NG3P2    CG324    NG301    CG331     9     0.000000     2.217520     3
   NG3P2   CG3C31   CG3C31     HGA1     9   180.000000     0.000000     5
   NG3P2   CG3C50   CG3C52   CG3C52     9     0.000000     0.585760     3
   NG3P2   CG3C50   CG3C52     HGA2     9     0.000000     0.585760     3
   NG3P2   CG3C53   CG3RC1   CG2R53     9     0.000000     0.209200     2
   NG3P2   CG3C53   CG3RC1   CG2R53     9     0.000000     1.046000     3
   NG3P2   CG3C53   CG3RC1   CG3C41     9     0.000000     1.464400     2
   NG3P2   CG3C53   CG3RC1   CG3C41     9   180.000000     0.502080     3
   NG3P2   CG3C53   CG3RC1   CG3C41     9   180.000000     1.087840     6
   NG3P2   CG3C53   CG3RC1   CG3RC1     9     0.000000     3.765600     2
   NG3P2   CG3C53   CG3RC1   CG3RC1     9     0.000000     2.928800     3
   NG3P2   CG3C53   CG3RC1   OG3C31     9   180.000000     2.092000     4
   NG3P2   CG3C53   CG3RC1     HGA1     9     0.000000     1.046000     3
   NG3P2   CG3C53    SG311   CG3C52     9   180.000000     0.000000     1
   NG3P2   CG3C53    SG311   CG3C52     9   180.000000     2.635920     2
   NG3P2   CG3C53    SG311   CG3C52     9   180.000000     1.464400     3
   NG3P2   CG3C53    SG311   CG3C52     9   180.000000     1.757280     4
   NG3P2   CG3C54   CG3RC1    CG2O4     9     0.000000     1.673600     3
   NG3P2   CG3C54   CG3RC1    CG2O4     9   180.000000     1.297040     4
   NG3P2   CG3C54   CG3RC1    CG2O4     9     0.000000     0.209200     6
   NG3P2   CG3C54   CG3RC1   CG2R53     9   180.000000    19.246400     2
   NG3P2   CG3C54   CG3RC1   CG2R53     9   180.000000     0.251040     3
   NG3P2   CG3C54   CG3RC1    CG301     9     0.000000     1.840960     2
   NG3P2   CG3C54   CG3RC1    CG301     9   180.000000     6.066800     3
   NG3P2   CG3C54   CG3RC1    CG301     9     0.000000     0.376560     4
   NG3P2   CG3C54   CG3RC1    CG301     9   180.000000     2.761440     6
   NG3P2   CG3C54   CG3RC1    CG321     9     0.000000     0.543920     2
   NG3P2   CG3C54   CG3RC1    CG321     9   180.000000     2.050160     3
   NG3P2   CG3C54   CG3RC1    CG321     9     0.000000     1.422560     4
   NG3P2   CG3C54   CG3RC1    CG321     9   180.000000     2.343040     6
   NG3P2   CG3C54   CG3RC1   CG3RC1     9     0.000000     3.765600     2
   NG3P2   CG3C54   CG3RC1   CG3RC1     9     0.000000     2.928800     3
   NG3P2   CG3C54   CG3RC1     HGA1     9     0.000000     1.046000     3
   NG3P2   CG3C54   NG3C51    CG331     9     0.000000     9.957920     3
   NG3P2   CG3C54   NG3C51   CG3C52     9     0.000000     7.405680     3
   NG3P2   CG3C54   NG3C51     HGP1     9   180.000000     7.698560     1
   NG3P2   CG3C54   NG3C51     HGP1     9   180.000000     4.016640     3
  OG2R50   CG2R51   CG2R51   OG2R50     9   180.000000    47.823120     2
  OG2R50   CG2R51   CG2R51    HGR51     9   180.000000    18.828000     2
  OG2R50   CG2R51   CG2R51    HGR52     9   180.000000    12.552000     2
  OG2R50   CG2R51   CG2R52   NG2R50     9   180.000000    58.576000     2
  OG2R50   CG2R51   CG2R52    HGR52     9   180.000000    12.552000     2
  OG2R50   CG2R51   CG2R61   CG2R61     9   180.000000    14.560320     2
  OG2R50   CG2R51   CG2R61   NG2R60     9   180.000000     5.815760     1
  OG2R50   CG2R51   CG2R61   NG2R60     9   180.000000     0.000000     2
  OG2R50   CG2R51   CG2R64   NG2R61     9     0.000000     4.644240     1
  OG2R50   CG2R51   CG2R64   NG2R61     9   180.000000     5.564720     2
  OG2R50   CG2R51   CG2R64   NG2R61     9     0.000000     0.753120     4
  OG2R50   CG2R51   CG2R64   NG2R62     9   180.000000     5.983120     2
  OG2R50   CG2R51   CG2R64   NG2R62     9   180.000000     0.711280     4
  OG2R50   CG2R51   CG2RC0   CG2R61     9     0.000000     3.932960     2
  OG2R50   CG2R51   CG2RC0   CG2RC0     9   180.000000    38.283600     2
  OG2R50   CG2R51    CG311    CG321     9     0.000000     0.920480     3
  OG2R50   CG2R51    CG311    CG324     9   180.000000     1.380720     3
  OG2R50   CG2R51    CG311    CG331     9     0.000000     0.920480     3
  OG2R50   CG2R51    CG311    NG321     9     0.000000     3.138000     3
  OG2R50   CG2R51    CG311    NG321     9     0.000000     0.836800     4
  OG2R50   CG2R51    CG311    NG321     9   180.000000     1.004160     6
  OG2R50   CG2R51    CG311    OG311     9     0.000000     0.251040     3
  OG2R50   CG2R51    CG311    OG311     9     0.000000     0.502080     4
  OG2R50   CG2R51    CG311   OG3C61     9     0.000000     0.920480     3
  OG2R50   CG2R51    CG311     HGA1     9     0.000000     0.753120     3
  OG2R50   CG2R51    CG314    CG331     9     0.000000     0.920480     3
  OG2R50   CG2R51    CG314    NG3P3     9   180.000000     0.083680     3
  OG2R50   CG2R51    CG314     HGA1     9     0.000000     0.753120     3
  OG2R50   CG2R51    CG321    CG321     9     0.000000     0.920480     3
  OG2R50   CG2R51    CG321    CG331     9     0.000000     0.906254     3
  OG2R50   CG2R51    CG321    NG311     9     0.000000     0.000000     2
  OG2R50   CG2R51    CG321    NG311     9     0.000000     0.125520     3
  OG2R50   CG2R51    CG321    OG311     9     0.000000     1.004160     3
  OG2R50   CG2R51    CG321     HGA2     9     0.000000     0.769438     3
  OG2R50   CG2R51    CG321      CT1     9     0.000000     0.906254     3
  OG2R50   CG2R51    CG321     CTD1     9     0.000000     0.906254     3
  OG2R50   CG2R51    CG331     HGA3     9     0.000000     0.753120     3
  OG2R50   CG2R51   CG3C52   CG3C52     9     0.000000     0.041840     2
  OG2R50   CG2R51   CG3C52   CG3C52     9     0.000000    15.480800     3
  OG2R50   CG2R51   CG3C52     HGA2     9     0.000000     0.000000     3
  OG2R50   CG2R51    NG2O1    OG2N1     9   180.000000    10.418160     2
  OG2R50   CG2R51   NG2R51   CG2R51     9   180.000000    25.689760     2
  OG2R50   CG2R51   NG2R51   NG2R50     9   180.000000    19.371920     2
  OG2R50   CG2R53    CG321    CG331     9     0.000000     1.966480     3
  OG2R50   CG2R53    CG321     HGA2     9     0.000000     0.000000     3
  OG2R50   CG2R53    CG331     HGA3     9     0.000000     0.000000     1
  OG2R50   CG2R53    CG331     HGA3     9     0.000000     0.000000     2
  OG2R50   CG2R53    CG331     HGA3     9     0.000000     0.000000     3
  OG2R50   CG2R53   NG2R50   CG2R51     9   180.000000    58.576000     2
  OG2R50   CG2R53   NG2R50   CG2R53     9   180.000000    50.208000     2
  OG2R50   CG2R53   NG2R50   CG2RC0     9   180.000000    58.576000     2
  OG2R50   CG2R53   NG2R50   CG2RC7     9   180.000000    38.367280     2
  OG2R50   CG2R53   NG2R50   NG2R50     9   180.000000    61.672160     2
  OG2R50   CG2R57   CG3C51   CG2RC0     9     0.000000     2.928800     3
  OG2R50   CG2R57   CG3C51   CG3C52     9   180.000000     1.129680     1
  OG2R50   CG2R57   CG3C51   CG3C52     9     0.000000     0.460240     3
  OG2R50   CG2R57   CG3C51     HGA1     9     0.000000     0.000000     3
  OG2R50   CG2R57   CG3C53   CG3C52     9     0.000000     6.443360     3
  OG2R50   CG2R57   CG3C53    NG3P2     9     0.000000     1.966480     3
  OG2R50   CG2R57   CG3C53     HGA1     9     0.000000     0.000000     3
  OG2R50   CG2R57   NG2R50   CG2R51     9   180.000000    40.333760     2
  OG2R50   CG2R57   NG2R50   NG2R50     9   180.000000    69.956480     2
  OG2R50   CG2R57   NG2R57   CG3C51     9   180.000000     7.322000     2
  OG2R50   CG2R57   NG2R57   CG3C51     9   180.000000     1.004160     4
  OG2R50   CG2R57   NG2R57   CG3C51     9     0.000000     1.255200     6
  OG2R50   CG2R57   NG2R57   CG3C52     9   180.000000     4.142160     2
  OG2R50   CG2R57   NG2R57   CG3C52     9     0.000000     0.125520     4
  OG2R50   CG2R57   NG2R57   CG3C52     9     0.000000     0.334720     6
  OG2R50   CG2RC0   NG2R62   CG2R64     9   180.000000    23.472240     2
   SG3O2   CG2R51   CG2R51    HGR51     9   180.000000     0.418400     2
   SG3O2   CG2R51   CG2R51    HGR52     9   180.000000     0.418400     2
   SG3O2   CG2R51   CG2R52    CG331     9     0.000000     1.506240     2
   SG3O2   CG2R51   CG2R52   NG2R50     9   180.000000    21.129200     2
   SG3O2   CG2R51   NG2R51    CG331     9     0.000000     1.046000     2
   SG3O2   CG2R51   NG2R51   NG2R50     9   180.000000    14.392960     2
   SG3O2   CG2R51   SG2R50   CG2R51     9   180.000000     6.694400     2
   SG3O2   CG2R53   NG2R50   CG2R51     9   180.000000    20.961840     2
   SG3O2   CG2R53   SG2R50   CG2R51     9   180.000000    18.493280     2
   SG3O2   CG2R61   CG2R61    HGR61     9   180.000000     8.786400     2
   SG3O2   CG2R61   CG2R61    HGR62     9   180.000000     8.786400     2
   SG3O2   CG2R61   CG2RC0   CG2RC0     9     0.000000     0.292880     2
   SG3O2   CG2R61   CG2RC0   NG2R50     9   180.000000     7.573040     2
   SG3O2   CG2R61   NG2R62   CG2R64     9   180.000000    29.622720     2
   SG3O2   CG2R62   CG2R62    HGR63     9   180.000000    13.012240     2
   SG3O2   CG2R62   CG2R63   NG2R61     9     0.000000     0.167360     2
   SG3O2   CG2R62   CG2R63    OG2D4     9   180.000000     7.656720     2
   SG3O2   CG2R62   CG2R64   NG2R61     9   180.000000    23.346720     2
   SG3O2   CG2R62   CG2R64    NG2S3     9   180.000000    18.953520     2
   SG3O2   CG2R64   NG2R62   CG2R61     9   180.000000    20.292400     2
   SG3O2    CG301    CG321    CG321     9   180.000000     0.083680     1
   SG3O2    CG301    CG321    CG321     9   180.000000     0.878640     2
   SG3O2    CG301    CG321    CG321     9   180.000000     3.891120     3
   SG3O2    CG301    CG321    CG321     9     0.000000     1.380720     4
   SG3O2    CG301    CG321     HGA2     9     0.000000     0.000000     1
   SG3O2    CG311    CG311     HGA1     9     0.000000     0.041840     1
   SG3O2    CG311    CG321    CG2D1     9     0.000000     0.041840     1
   SG3O2    CG311    CG321    CG2D1     9     0.000000     1.631760     2
   SG3O2    CG311    CG321    CG2D1     9   180.000000     0.376560     3
   SG3O2    CG311    CG321    CG2D1     9   180.000000     8.242480     4
   SG3O2    CG311    CG321    CG2O5     9   180.000000     4.267680     3
   SG3O2    CG311    CG321    CG301     9   180.000000     5.230000     1
   SG3O2    CG311    CG321    CG301     9   180.000000     3.263520     2
   SG3O2    CG311    CG321    CG301     9   180.000000     0.292880     3
   SG3O2    CG311    CG321    CG311     9     0.000000     0.167360     1
   SG3O2    CG311    CG321    CG311     9   180.000000     0.251040     2
   SG3O2    CG311    CG321    CG311     9   180.000000     2.677760     3
   SG3O2    CG311    CG321    CG314     9     0.000000     0.000000     2
   SG3O2    CG311    CG321    CG314     9     0.000000     2.928800     3
   SG3O2    CG311    CG321    CG321     9   180.000000     3.932960     1
   SG3O2    CG311    CG321    CG321     9     0.000000     1.589920     2
   SG3O2    CG311    CG321    CG321     9     0.000000     0.460240     3
   SG3O2    CG311    CG321    CG324     9   180.000000     0.083680     3
   SG3O2    CG311    CG321    CG331     9   180.000000     3.932960     1
   SG3O2    CG311    CG321    CG331     9     0.000000     1.589920     2
   SG3O2    CG311    CG321    CG331     9     0.000000     0.460240     3
   SG3O2    CG311    CG321    NG2S0     9     0.000000     0.000000     1
   SG3O2    CG311    CG321    NG2S0     9   180.000000     5.397360     2
   SG3O2    CG311    CG321    NG2S0     9   180.000000    11.003920     3
   SG3O2    CG311    CG321    NG301     9   180.000000     1.673600     1
   SG3O2    CG311    CG321    NG301     9   180.000000     2.217520     2
   SG3O2    CG311    CG321    NG301     9     0.000000     2.259360     3
   SG3O2    CG311    CG321    NG311     9   180.000000     5.146320     1
   SG3O2    CG311    CG321    NG311     9   180.000000     9.706880     2
   SG3O2    CG311    CG321    NG311     9     0.000000     5.732080     3
   SG3O2    CG311    CG321    NG311     9   180.000000     0.794960     6
   SG3O2    CG311    CG321   OG3C61     9   180.000000     1.840960     1
   SG3O2    CG311    CG321   OG3C61     9     0.000000     0.000000     3
   SG3O2    CG311    CG321   OG3C61     9     0.000000     1.589920     6
   SG3O2    CG311    CG321     HGA2     9     0.000000     0.041840     1
   SG3O2    CG311    CG331     HGA3     9     0.000000     0.334720     3
   SG3O2    CG311    NG2S1    CG2O1     9   180.000000     0.041840     1
   SG3O2    CG311    NG2S1    CG2O1     9   180.000000     3.472720     4
   SG3O2    CG311    NG2S1    CG2O1     9   180.000000     0.292880     6
   SG3O2    CG311    NG2S1     HGP1     9     0.000000     1.004160     1
   SG3O2    CG311    NG2S1     HGP1     9     0.000000     0.920480     3
   SG3O2    CG321    CG321     HGA2     9     0.000000     0.041840     1
   SG3O2    CG321    CG324    NG3P2     9   180.000000    20.083200     1
   SG3O2    CG321    CG324    NG3P2     9   180.000000     1.882800     2
   SG3O2    CG321    CG324     HGA2     9     0.000000     0.041840     1
   SG3O2    CG321    CG331     HGA3     9     0.000000     0.322168     3
   SG3O2    CG321   CG3RC1   CG3C52     9   180.000000     1.380720     1
   SG3O2    CG321   CG3RC1   CG3C52     9   180.000000     0.878640     2
   SG3O2    CG321   CG3RC1   CG3C52     9     0.000000     0.460240     3
   SG3O2    CG321   CG3RC1   CG3C52     9     0.000000     0.000000     4
   SG3O2    CG321   CG3RC1   CG3RC1     9     0.000000     0.502080     1
   SG3O2    CG321   CG3RC1   CG3RC1     9     0.000000     0.125520     2
   SG3O2    CG321   CG3RC1   CG3RC1     9     0.000000     0.711280     3
   SG3O2    CG321   CG3RC1   CG3RC1     9   180.000000     0.209200     4
   SG3O2    CG321   CG3RC1     HGA1     9     0.000000     0.000000     3
   SG3O2    CG321    SG3O2    CG321     9     0.000000     2.217520     1
   SG3O2    CG321    SG3O2    CG321     9     0.000000    16.568640     2
   SG3O2    CG321    SG3O2    CG321     9   180.000000     3.681920     3
   SG3O2    CG321    SG3O2    OG2P1     9   180.000000     1.422560     3
   SG3O2    CG321    SG3O2    OG2P1     9   180.000000     0.000000     6
   SG3O2   CG3C31   CG3C31     HGA2     9   180.000000     0.000000     5
   SG3O2   CG3C41   CG3C41     HGA2     9   180.000000     0.000000     3
   SG3O2   CG3C41   CG3C51    CG322     9     0.000000     0.920480     1
   SG3O2   CG3C41   CG3C51    CG322     9     0.000000     0.627600     2
   SG3O2   CG3C41   CG3C51    CG322     9     0.000000     0.543920     3
   SG3O2   CG3C41   CG3C51    CG322     9   180.000000     2.384880     4
   SG3O2   CG3C41   CG3C51   CG3C52     9     0.000000     0.000000     1
   SG3O2   CG3C41   CG3C51   CG3C52     9     0.000000     1.757280     2
   SG3O2   CG3C41   CG3C51   CG3C52     9     0.000000     1.087840     3
   SG3O2   CG3C41   CG3C51   CG3C52     9   180.000000     0.167360     4
   SG3O2   CG3C41   CG3C51     HGA1     9     0.000000     0.000000     3
   SG3O2   CG3C41   CG3RC1    CG321     9     0.000000     0.000000     2
   SG3O2   CG3C41   CG3RC1    CG321     9     0.000000     9.288480     3
   SG3O2   CG3C41   CG3RC1   NG2R43     9   180.000000     5.020800     3
   SG3O2   CG3C41   CG3RC1     HGA1     9   180.000000     0.000000     3
   SG3O2   CG3C50    SG3O2   CG3C52     9     0.000000     0.083680     1
   SG3O2   CG3C50    SG3O2   CG3C52     9     0.000000     0.000000     2
   SG3O2   CG3C50    SG3O2   CG3C52     9     0.000000     3.305360     3
   SG3O2   CG3C50    SG3O2    OG2P1     9     0.000000     7.949600     2
   SG3O2   CG3C50    SG3O2    OG2P1     9     0.000000     6.610720     3
   SG3O2   CG3C51   CG3C52   CG3C52     9     0.000000     1.966480     3
   SG3O2   CG3C51   CG3C52   CG3C52     9     0.000000     0.376560     4
   SG3O2   CG3C51   CG3C52     HGA2     9     0.000000     0.000000     3
   SG3O2   CG3C52   CG3C52    SG3O2     9     0.000000     5.690240     2
   SG3O2   CG3C52   CG3C52     HGA2     9     0.000000     0.000000     3
   HGR51   CG2R51   CG2R51    HGR51     9   180.000000     4.184000     2
   HGR51   CG2R51   CG2R51    HGR52     9   180.000000     4.184000     2
   HGR51   CG2R51   CG2R52   CG2DC1     9   180.000000     1.548080     2
   HGR51   CG2R51   CG2R52   CG2DC2     9   180.000000     1.548080     2
   HGR51   CG2R51   CG2R52    CG2O2     9     0.000000     0.669440     2
   HGR51   CG2R51   CG2R52   CG2R61     9     0.000000     0.000000     2
   HGR51   CG2R51   CG2R52   CG2R62     9     0.000000     0.083680     2
   HGR51   CG2R51   CG2R52    CG301     9   180.000000     4.184000     2
   HGR51   CG2R51   CG2R52    CG331     9     0.000000     1.213360     2
   HGR51   CG2R51   CG2R52   NG2R50     9   180.000000    18.828000     2
   HGR51   CG2R51   CG2R52   NG2R52     9   180.000000    18.828000     2
   HGR51   CG2R51   CG2R52    HGR52     9   180.000000     0.418400     2
   HGR51   CG2R51   CG2R53   NG2R51     9   180.000000     3.012480     2
   HGR51   CG2R51   CG2R53    OG2D1     9   180.000000    18.828000     2
   HGR51   CG2R51   CG2R53   OG2R50     9   180.000000     9.414000     2
   HGR51   CG2R51   CG2R53   OG3C51     9   180.000000    15.480800     2
   HGR51   CG2R51   CG2R53   SG2R50     9     0.000000     0.000000     2
   HGR51   CG2R51   CG2R57   CG2R51     9   180.000000     4.184000     2
   HGR51   CG2R51   CG2R57   CG2R57     9   180.000000    14.644000     2
   HGR51   CG2R51   CG2R57   CG3C51     9     0.000000     0.083680     2
   HGR51   CG2R51   CG2R57   CG3C52     9   180.000000    11.882560     2
   HGR51   CG2R51   CG2R57   CG3C53     9     0.000000     0.041840     2
   HGR51   CG2R51   CG2R57   NG2R50     9   180.000000     2.343040     2
   HGR51   CG2R51   CG2R57   NG2R51     9   180.000000    13.012240     2
   HGR51   CG2R51   CG2R57   NG2R57     9   180.000000    14.644000     2
   HGR51   CG2R51   CG2R57   NG3C51     9   180.000000    12.635680     2
   HGR51   CG2R51   CG2R57   OG2R50     9   180.000000    15.815520     2
   HGR51   CG2R51   CG2R57   SG2R50     9   180.000000    22.802800     2
   HGR51   CG2R51   CG2RC0   CG2R61     9   180.000000    11.715200     2
   HGR51   CG2R51   CG2RC0   CG2R62     9   180.000000    11.715200     2
   HGR51   CG2R51   CG2RC0   CG2R63     9   180.000000    11.715200     2
   HGR51   CG2R51   CG2RC0   CG2R64     9   180.000000    11.715200     2
   HGR51   CG2R51   CG2RC0   CG2R66     9   180.000000    11.715200     2
   HGR51   CG2R51   CG2RC0   CG2RC0     9   180.000000    10.878400     2
   HGR51   CG2R51   CG2RC0   NG2R62     9     0.000000     0.334720     2
   HGR51   CG2R51   CG2RC0   NG2RC0     9   180.000000     3.347200     2
   HGR51   CG2R51   CG2RC7   CG2R71     9   180.000000     9.204800     2
   HGR51   CG2R51   CG2RC7   CG2RC7     9   180.000000     9.204800     2
   HGR51   CG2R51   CG3C50   CG2RC0     9   180.000000    12.844880     2
   HGR51   CG2R51   CG3C50   CG2RC0     9     0.000000     3.891120     3
   HGR51   CG2R51   CG3C50    CG321     9   180.000000     4.100320     2
   HGR51   CG2R51   CG3C50    CG331     9   180.000000     4.113290     2
   HGR51   CG2R51   CG3C50   CG3C50     9     0.000000     2.092000     2
   HGR51   CG2R51   CG3C50   CG3C52     9     0.000000     2.092000     2
   HGR51   CG2R51   CG3C50   NG3C51     9   180.000000    12.970400     2
   HGR51   CG2R51   CG3C50    OG311     9   180.000000     2.092000     2
   HGR51   CG2R51   CG3C50   OG3C51     9   180.000000    16.066560     2
   HGR51   CG2R51   CG3C51    CG2O1     9     0.000000     8.518206     3
   HGR51   CG2R51   CG3C51   CG2R61     9   180.000000     1.171520     3
   HGR51   CG2R51   CG3C51   CG2RC0     9     0.000000     7.949600     3
   HGR51   CG2R51   CG3C51   CG3C51     9     0.000000     2.092000     2
   HGR51   CG2R51   CG3C51   CG3C52     9     0.000000     2.092000     2
   HGR51   CG2R51   CG3C51    NG2S0     9   180.000000     1.198298     2
   HGR51   CG2R51   CG3C51    NG311     9     0.000000     7.112800     2
   HGR51   CG2R51   CG3C51    NG311     9     0.000000    12.970400     3
   HGR51   CG2R51   CG3C51   NG3C51     9   180.000000    12.970400     2
   HGR51   CG2R51   CG3C51    OG301     9     0.000000     0.292880     2
   HGR51   CG2R51   CG3C51    OG301     9   180.000000     1.506240     3
   HGR51   CG2R51   CG3C51    OG311     9   180.000000     2.092000     2
   HGR51   CG2R51   CG3C51    SG311     9   180.000000     1.602472     2
   HGR51   CG2R51   CG3C51    SG3O1     9     0.000000     2.301200     2
   HGR51   CG2R51   CG3C51    SG3O1     9     0.000000     5.481040     3
   HGR51   CG2R51   CG3C51     HGA1     9     0.000000     0.000000     3
   HGR51   CG2R51   CG3C52   CG2R51     9     0.000000     8.577200     3
   HGR51   CG2R51   CG3C52   CG2R52     9     0.000000     6.276000     3
   HGR51   CG2R51   CG3C52   CG2R53     9     0.000000     6.276000     3
   HGR51   CG2R51   CG3C52   CG2RC0     9     0.000000     7.949600     3
   HGR51   CG2R51   CG3C52   CG3C50     9     0.000000     0.000000     2
   HGR51   CG2R51   CG3C52   CG3C50     9     0.000000     2.259360     6
   HGR51   CG2R51   CG3C52   CG3C51     9   180.000000     8.368000     2
   HGR51   CG2R51   CG3C52   CG3C52     9   180.000000     8.368000     2
   HGR51   CG2R51   CG3C52   CG3C54     9   180.000000     6.276000     2
   HGR51   CG2R51   CG3C52   NG2R50     9   180.000000    17.991200     2
   HGR51   CG2R51   CG3C52    NG2S0     9   180.000000    18.504995     2
   HGR51   CG2R51   CG3C52   NG3C51     9   180.000000    12.970400     2
   HGR51   CG2R51   CG3C52   OG3C51     9   180.000000    12.970400     2
   HGR51   CG2R51   CG3C52    SG3O2     9   180.000000    18.660640     2
   HGR51   CG2R51   CG3C52    SG3O3     9   180.000000    14.058240     2
   HGR51   CG2R51   CG3C52     HGA2     9     0.000000     0.000000     3
   HGR51   CG2R51   CG3C53   CG3C51     9     0.000000     2.092000     2
   HGR51   CG2R51   CG3C53   CG3C52     9     0.000000     2.092000     2
   HGR51   CG2R51   CG3C53    NG3P2     9   180.000000     0.000000     2
   HGR51   CG2R51   CG3C53    NG3P3     9   180.000000     0.000000     2
   HGR51   CG2R51   CG3C53     HGA1     9     0.000000     0.000000     3
   HGR51   CG2R51   CG3C54   NG2R52     9   180.000000    20.920000     2
   HGR51   CG2R51   CG3C54    NG3P2     9   180.000000     7.112800     2
   HGR51   CG2R51   CG3C54     HGA2     9     0.000000     0.000000     3
   HGR51   CG2R51   CG3RC1   CG3C52     9     0.000000     1.255200     2
   HGR51   CG2R51   CG3RC1    SG3O3     9   180.000000    15.522640     2
   HGR51   CG2R51   CG3RC1     HGA1     9     0.000000     0.000000     3
   SG3O1   CG2R51   CG2RC0   CG2R61     9     0.000000     0.125520     2
   SG3O1   CG2R51   CG2RC0   CG2RC0     9     0.000000     0.000000     2
   SG3O1   CG2R61   CG2R61    HGR61     9   180.000000    10.041600     2
   SG3O1   CG2R61   CG2R61    HGR62     9   180.000000    10.041600     2
   SG3O1   CG2R61   CG2RC0   CG2RC0     9     0.000000     0.000000     2
   SG3O1   CG2R61   CG2RC0   NG2R50     9   180.000000    12.552000     2
   SG3O1   CG2R61   NG2R60   CG2R61     9   180.000000    16.736000     2
   SG3O1   CG2R64   NG2R62   CG2R61     9   180.000000    16.777840     2
   SG3O1    CG311    CG321    CG2O5     9   180.000000     2.217520     3
   SG3O1    CG311    CG321    CG2O5     9     0.000000     0.000000     4
   SG3O1    CG311    CG321    CG321     9   180.000000     3.932960     1
   SG3O1    CG311    CG321    CG321     9     0.000000     1.589920     2
   SG3O1    CG311    CG321    CG321     9     0.000000     0.460240     3
   SG3O1    CG311    CG321    CG324     9     0.000000     0.125520     3
   SG3O1    CG311    CG321     HGA2     9     0.000000     0.041840     1
   SG3O1    CG321    CG321     HGA2     9     0.000000     0.041840     1
   SG3O1    CG321    CG324    NG3P2     9   180.000000    20.083200     1
   SG3O1    CG321    CG324    NG3P2     9   180.000000     1.882800     2
   SG3O1    CG321    CG324     HGA2     9     0.000000     0.209200     1
   SG3O1    CG321    CG331     HGA3     9     0.000000     0.460240     3
   SG3O1    CG321      CT1        C     9     0.000000     3.029216     3
   SG3O1   CG3C51   CG3C52    SG3O2     9     0.000000     0.000000     2
   SG3O1   CG3C51   CG3C52     HGA2     9     0.000000     0.000000     3
    FGR1   CG2R51   NG2RC0   CG2R61     9     0.000000     0.041840     2
    FGR1   CG2R51   NG2RC0   CG2RC0     9   180.000000    28.242000     2
    FGR1   CG2R53   NG2R50   CG2R51     9   180.000000    52.204605     2
    FGR1   CG2R53   NG2R50   CG2RC0     9   180.000000    52.216320     2
    FGR1   CG2R53   NG2R51   CG2R51     9   180.000000    12.793835     2
    FGR1   CG2R53   NG2R51     HGP1     9   180.000000     1.401640     2
    FGR1   CG2R53   NG2R52   CG2R51     9   180.000000    14.879978     2
    FGR1   CG2R53   NG2R52     HGP2     9   180.000000     6.281021     2
    FGR1   CG2R53   SG2R50   CG2RC0     9   180.000000     0.000000     2
    FGR1   CG2R64   NG2R62   CG2R61     9   180.000000    33.304640     2
    FGR1   CG2R66   CG2R66     FGR1     9   180.000000    17.506693     2
    FGR1   CG2R66   CG2R67   CG2R61     9   180.000000    18.828000     2
    FGR1   CG2R66   CG2R67   CG2R67     9   180.000000     4.184000     2
    FGR1   CG2R66   CG2R67   NG2R60     9   180.000000    18.995360     2
    FGR1   CG2R66   CG2RC0   CG2R51     9   180.000000     4.479390     2
    FGR1   CG2R66   CG2RC0   CG2R52     9   180.000000     4.476880     2
    FGR1   CG2R66   CG2RC0   CG2R53     9   180.000000     4.476880     2
    FGR1   CG2R66   CG2RC0   CG2RC0     9   180.000000    19.085734     2
    FGR1   CG2R66   CG2RC0   CG3C50     9   180.000000    10.334480     2
    FGR1   CG2R66   CG2RC0   CG3C51     9   180.000000     6.108640     2
    FGR1   CG2R66   CG2RC0   CG3C52     9   180.000000     7.614880     2
    FGR1   CG2R66   CG2RC0   CG3C53     9   180.000000     8.116960     2
    FGR1   CG2R66   CG2RC0   NG2R50     9   180.000000     1.589920     2
    FGR1   CG2R66   CG2RC0   NG2R51     9   180.000000     1.338880     2
    FGR1   CG2R66   CG2RC0   NG2RC0     9   180.000000    13.807200     2
    FGR1   CG2R66   CG2RC0   NG3C51     9   180.000000     4.518720     2
    FGR1   CG2R66   CG2RC0   OG2R50     9   180.000000    12.970400     2
    FGR1   CG2R66   NG2R60   CG2R66     9   180.000000    22.509920     2
    FGR1   CG2R66   NG2R61   CG2R63     9   180.000000    12.300960     2
    FGR1   CG2R66   NG2R61     HGP1     9   180.000000     7.363840     2
    FGR1   CG2R66   NG2R62   NG2R62     9   180.000000     0.000000     2
    FGR1   CG2R66   NG2RC0   CG2RC0     9   180.000000    11.966240     2
    FGR1   CG2R66   NG2RC0   NG2R50     9   180.000000    19.037200     2
   NG3P0   CG2R53   NG2R50   NG2R50     9   180.000000    35.731360     2
   NG3P0   CG2R61   CG2R61    HGR61     9   180.000000    10.878400     2
   NG3P0    CG301    CG321    CG324     9     0.000000     0.000000     2
   NG3P0    CG301    CG321    CG324     9     0.000000     6.652560     3
   NG3P0    CG301    CG321     HGA2     9     0.000000     0.836800     3
   NG3P0    CG314    CG321    CG321     9     0.000000     0.815880     3
   NG3P0    CG314    CG321    NG2S1     9     0.000000     0.836800     3
   NG3P0    CG314    CG321    OG311     9     0.000000     0.836800     3
   NG3P0    CG314    CG321     HGA2     9     0.000000     0.815880     3
   NG3P0    CG314    CG331     HGA3     9     0.000000     0.836800     3
   NG3P0    CG324    CG331     HGA3     9     0.000000     0.669440     3
   NG3P0    CG324   OG3C61    CG301     9     0.000000    14.602160     2
   NG3P0    CG324   OG3C61    CG301     9   180.000000     2.928800     3
   NG3P0   CG3C53   NG2R50   NG2R50     9     0.000000     0.041840     2
   NG3P0   CG3C53   NG2R50   NG2R50     9   180.000000     3.012480     3
   HGR53   CG2R53   NG2R52    CG2O1     9     0.000000     0.502080     2
   HGR53   CG2R53   NG2R52    CG2O6     9   180.000000     0.920480     2
   HGR53   CG2R53   NG2R52   CG2R51     9   180.000000    12.552000     2
   HGR53   CG2R53   NG2R52   CG2R64     9     0.000000     2.552240     2
   HGR53   CG2R53   NG2R52   CG2RC0     9   180.000000    11.296800     2
   HGR53   CG2R53   NG2R52    CG324     9   180.000000     4.184000     2
   HGR53   CG2R53   NG2R52    CG334     9   180.000000     4.184000     2
   HGR53   CG2R53   NG2R52   CG3C50     9   180.000000    12.510160     2
   HGR53   CG2R53   NG2R52   CG3C53     9   180.000000    26.359200     2
   HGR53   CG2R53   NG2R52   CG3C54     9   180.000000    26.359200     2
   HGR53   CG2R53   NG2R52   CG3RC1     9   180.000000    20.501600     2
   HGR53   CG2R53   NG2R52     HGP2     9   180.000000     0.000000     2
   HGR53   CG2R53   NG2R52     CN7B     9   180.000000    26.359200     2
  CG2R63   CG2R61   CG2R61    CG321     9   180.000000    12.970400     2
  CG2R63   CG2R61   CG2R61    CG331     9   180.000000    12.970400     2
  CG2R63   CG2R61   CG2R61   NG2R61     9   180.000000     2.092000     2
  CG2R63   CG2R61   CG2R61   NG2R62     9   180.000000     5.020800     2
  CG2R63   CG2R61   CG2R61    HGR61     9   180.000000     4.184000     2
  CG2R63   CG2R61   CG2R61    HGR62     9   180.000000     2.092000     2
  CG2R63   CG2R61    CG302     FGA3     9     0.000000     1.255200     2
  CG2R63   CG2R61    CG321    CG321     9   180.000000     0.962320     2
  CG2R63   CG2R61    CG321     HGA2     9     0.000000     0.000000     6
  CG2R63   CG2R61    CG331     HGA3     9     0.000000     0.000000     6
  CG2R63   CG2R61   CG3C51   CG3C52     9     0.000000     4.184000     2
  CG2R63   CG2R61   CG3C51   CG3C52     9   180.000000     0.878640     3
  CG2R63   CG2R61   CG3C51   NG3C51     9   180.000000     8.828240     2
  CG2R63   CG2R61   CG3C51   NG3C51     9     0.000000     2.426720     3
  CG2R63   CG2R61   CG3C51     HGA1     9     0.000000     0.000000     6
  CG2R63   CG2R62   CG2R62   CG2R63     9   180.000000    12.552000     2
  CG2R63   CG2R62   CG2R62   CG2R67     9   180.000000    15.480800     2
  CG2R63   CG2R62   CG2R62   CG2RC0     9   180.000000    15.480800     2
  CG2R63   CG2R62   CG2R62    CG302     9   180.000000    19.622960     2
  CG2R63   CG2R62   CG2R62    CG311     9   180.000000    20.710800     2
  CG2R63   CG2R62   CG2R62    CG312     9   180.000000     6.987280     2
  CG2R63   CG2R62   CG2R62    CG321     9   180.000000    14.811360     2
  CG2R63   CG2R62   CG2R62    CG324     9   180.000000     1.966480     2
  CG2R63   CG2R62   CG2R62    CG331     9   180.000000    27.698080     2
  CG2R63   CG2R62   CG2R62   CG3C31     9   180.000000    19.288240     2
  CG2R63   CG2R62   CG2R62   CG3C41     9   180.000000    16.233920     2
  CG2R63   CG2R62   CG2R62   NG2R60     9   180.000000     2.092000     2
  CG2R63   CG2R62   CG2R62   NG2R61     9   180.000000    12.552000     2
  CG2R63   CG2R62   CG2R62   NG2R62     9   180.000000     2.092000     2
  CG2R63   CG2R62   CG2R62   NG2R67     9   180.000000    12.552000     2
  CG2R63   CG2R62   CG2R62   NG2RC0     9   180.000000    12.552000     2
  CG2R63   CG2R62   CG2R62    NG2S3     9   180.000000    25.438720     2
  CG2R63   CG2R62   CG2R62    OG311     9   180.000000    12.552000     2
  CG2R63   CG2R62   CG2R62    OG312     9     0.000000     0.000000     2
  CG2R63   CG2R62   CG2R62   OG3R60     9   180.000000     1.673600     2
  CG2R63   CG2R62   CG2R62    SG311     9   180.000000     9.121120     2
  CG2R63   CG2R62   CG2R62    HGR62     9   180.000000     4.184000     2
  CG2R63   CG2R62   CG2R64   NG2R61     9   180.000000     1.046000     2
  CG2R63   CG2R62   CG2R64   NG2R62     9   180.000000     4.267680     2
  CG2R63   CG2R62   CG2R64    NG2S3     9   180.000000     8.368000     2
  CG2R63   CG2R62   CG2R64    NG301     9   180.000000    22.509920     2
  CG2R63   CG2R62   CG2R64    NG311     9   180.000000    22.509920     2
  CG2R63   CG2R62   CG2R66   CG2R61     9   180.000000    12.970400     2
  CG2R63   CG2R62   CG2R66     FGR1     9   180.000000    18.828000     2
  CG2R63   CG2R62   CG2R67   CG2R62     9   180.000000    12.970400     2
  CG2R63   CG2R62   CG2R67   CG2R67     9   180.000000    12.970400     2
  CG2R63   CG2R62   CG2RC0   NG2R52     9     0.000000     3.096160     2
  CG2R63   CG2R62   CG2RC0   NG2RC0     9   180.000000    14.644000     2
  CG2R63   CG2R62    CG311    CG2O2     9     0.000000     0.836800     2
  CG2R63   CG2R62    CG311    CG2O3     9   180.000000     0.962320     2
  CG2R63   CG2R62    CG311    CG321     9     0.000000     1.673600     2
  CG2R63   CG2R62    CG311    OG311     9   180.000000     3.347200     1
  CG2R63   CG2R62    CG311     HGA1     9   180.000000     0.418400     6
  CG2R63   CG2R62    CG321    CG1N1     9   180.000000     1.631760     2
  CG2R63   CG2R62    CG321    CG1N1     9     0.000000     0.167360     4
  CG2R63   CG2R62    CG321    CG2O1     9     0.000000     0.418400     2
  CG2R63   CG2R62    CG321    CG2O2     9     0.000000     0.418400     2
  CG2R63   CG2R62    CG321    CG2O3     9     0.000000     0.627600     3
  CG2R63   CG2R62    CG321    CG2O3     9     0.000000     0.418400     4
  CG2R63   CG2R62    CG321    CG311     9     0.000000     1.673600     2
  CG2R63   CG2R62    CG321    CG321     9     0.000000     1.673600     2
  CG2R63   CG2R62    CG321    CG324     9   180.000000     2.719600     2
  CG2R63   CG2R62    CG321    NG311     9   180.000000     4.184000     2
  CG2R63   CG2R62    CG321    NG321     9   180.000000     4.184000     2
  CG2R63   CG2R62    CG321   OG3C61     9     0.000000     0.041840     2
  CG2R63   CG2R62    CG321     HGA2     9     0.000000     0.251040     4
  CG2R63   CG2R62    CG324    NG3P2     9   180.000000     7.949600     1
  CG2R63   CG2R62    CG324    NG3P2     9     0.000000     0.836800     2
  CG2R63   CG2R62    CG324    NG3P3     9     0.000000     3.138000     2
  CG2R63   CG2R62    CG324     HGA2     9     0.000000     2.301200     3
  CG2R63   CG2R62    CG331     HGA3     9     0.000000     1.924640     3
  CG2R63   CG2R62    NG2O1    OG2N1     9   180.000000     3.765600     2
  CG2R63   CG2R62   NG2R60   CG2R61     9   180.000000     9.204800     2
  CG2R63   CG2R62   NG2R60   CG2R62     9   180.000000     9.204800     2
  CG2R63   CG2R62   NG2R61   CG2R63     9   180.000000     2.510400     2
  CG2R63   CG2R62   NG2R61     HGP1     9   180.000000     4.184000     2
  CG2R63   CG2R62   NG2R62   CG2R64     9   180.000000     2.092000     2
  CG2R63   CG2R62   NG2R62   NG2R62     9   180.000000     3.347200     2
  CG2R63   CG2R62   NG2R62   NG2RC0     9   180.000000    22.384400     2
  CG2R63   CG2R62    NG2S3     HGP4     9   180.000000     5.648400     2
  CG2R63   CG2R62    NG311   CG2R61     9     0.000000     0.041840     2
  CG2R63   CG2R62    NG311    CG311     9   180.000000     5.020800     2
  CG2R63   CG2R62    NG311    CG311     9     0.000000     1.255200     4
  CG2R63   CG2R62    NG311   HGPAM1     9   180.000000     5.397360     2
  CG2R63   CG2R62   NG3C51   CG3C51     9   180.000000     3.012480     2
  CG2R63   CG2R62   NG3C51   CG3C51     9   180.000000     0.083680     3
  CG2R63   CG2R62   NG3C51   CG3C51     9     0.000000     1.046000     4
  CG2R63   CG2R62   NG3C51   CG3C52     9   180.000000     0.502080     2
  CG2R63   CG2R62   NG3C51   CG3C52     9     0.000000     8.577200     3
  CG2R63   CG2R62   NG3C51   CG3C52     9   180.000000     0.292880     4
  CG2R63   CG2R62    OG301    CG321     9     0.000000     7.531200     1
  CG2R63   CG2R62    OG301    CG321     9   180.000000    11.715200     2
  CG2R63   CG2R62    OG301    CG321     9     0.000000     4.184000     3
  CG2R63   CG2R62    OG301    CG331     9     0.000000     5.857600     1
  CG2R63   CG2R62    OG301    CG331     9   180.000000     4.184000     2
  CG2R63   CG2R62    OG301    CG331     9     0.000000     5.439200     3
  CG2R63   CG2R62    OG311     HGP1     9   180.000000     1.715440     1
  CG2R63   CG2R62    OG311     HGP1     9   180.000000     4.142160     2
  CG2R63   CG2R62    OG311     HGP1     9     0.000000     0.418400     3
  CG2R63   CG2R62    SG3O2    NG321     9     0.000000     1.464400     2
  CG2R63   CG2R62    SG3O2    OG2P1     9     0.000000     0.000000     6
  CG2R63   CG2R62     CN7B     ON6B     9   180.000000     1.255200     1
  CG2R63   CG2R62     CN7B     CN7B     9   180.000000     5.439200     1
  CG2R63   CG2R62     CN7B      HN7     9     0.000000     0.000000     3
  CG2R63   CG2R62     CN7B      ON6     9   180.000000     1.255200     1
  CG2R63   CG2R62     CN7B      CN8     9   180.000000     4.184000     1
  CG2R63   CG2R63   NG2R61   CG2R62     9   180.000000     6.276000     2
  CG2R63   CG2R63   NG2R61    CG331     9   180.000000    23.012000     2
  CG2R63   CG2R63   NG2R61     HGP1     9   180.000000    20.083200     2
  CG2R63   CG2R64   NG2R60   CG2R61     9   180.000000     5.020800     2
  CG2R63   CG2R64   NG2R60   CG2R62     9   180.000000     5.020800     2
  CG2R63   CG2R64    NG2S3     HGP4     9   180.000000     8.368000     2
  CG2R63   CG2R64    NG301    CG321     9   180.000000     1.506240     2
  CG2R63   CG2R64    NG311    OG311     9     0.000000     3.556400     1
  CG2R63   CG2R64    NG311    OG311     9   180.000000    38.409120     2
  CG2R63   CG2R64    NG311     HGP1     9   180.000000    12.552000     2
  CG2R63   CG2R64   NG3C51   CG3C51     9     0.000000     5.606560     1
  CG2R63   CG2R64   NG3C51   CG3C51     9     0.000000     0.083680     2
  CG2R63   CG2R64   NG3C51   CG3C52     9     0.000000     1.673600     1
  CG2R63   CG2R64   NG3C51   CG3C52     9   180.000000    30.082960     2
  CG2R63   CG2RC0   CG2RC0   CG3C54     9   180.000000     8.075120     2
  CG2R63   CG2RC0   CG2RC0   NG2R50     9     0.000000     0.000000     2
  CG2R63   CG2RC0   CG2RC0   NG2R51     9   180.000000    41.840000     2
  CG2R63   CG2RC0   CG2RC0   NG2R52     9   180.000000    20.920000     2
  CG2R63   CG2RC0   CG2RC0   NG2R60     9   180.000000     8.368000     2
  CG2R63   CG2RC0   CG2RC0   NG2R61     9   180.000000     8.368000     2
  CG2R63   CG2RC0   CG2RC0   NG2R62     9   180.000000     8.368000     2
  CG2R63   CG2RC0   CG2RC0   NG2R67     9     0.000000     4.058480     2
  CG2R63   CG2RC0   CG2RC0   OG2R50     9   180.000000     0.000000     2
  CG2R63   CG2RC0   CG2RC0   SG2R50     9   180.000000     0.000000     2
  CG2R63   CG2RC0   CG3C54    NG3P2     9     0.000000     0.000000     2
  CG2R63   CG2RC0   CG3C54    NG3P2     9     0.000000     1.464400     3
  CG2R63   CG2RC0   CG3C54     HGA2     9   180.000000     2.092000     3
  CG2R63   CG2RC0   NG2R50   CG2R53     9   180.000000     8.368000     2
  CG2R63   CG2RC0   NG2R50   NG2R51     9     0.000000     0.000000     2
  CG2R63   CG2RC0   NG2R51   CG2R53     9   180.000000    11.380480     2
  CG2R63   CG2RC0   NG2R51    CG331     9     0.000000     8.660880     2
  CG2R63   CG2RC0   NG2R51   CG3C41     9     0.000000     2.259360     2
  CG2R63   CG2RC0   NG2R51   CG3C52     9     0.000000     0.794960     2
  CG2R63   CG2RC0   NG2R52   CG2R53     9   180.000000     8.368000     2
  CG2R63   CG2RC0   NG2R52    CG334     9   180.000000    12.552000     2
  CG2R63   CG2RC0   NG2RC0   CG2R61     9   180.000000     3.347200     2
  CG2R63   CG2RC0   NG2RC0   NG2R50     9     0.000000     0.000000     2
  CG2R63   CG2RC0   SG2R50   CG2R51     9   180.000000    35.564000     2
  CG2R63   NG2R61   NG2R61   CG2R63     9     0.000000     0.125520     2
  CG2R63   NG2R61   NG2R61    CG301     9     0.000000     3.472720     2
  CG2R63   NG2R61   NG2R61     HGP1     9     0.000000     1.757280     2
  CG2R63   NG2R61   NG2RC0   CG2R51     9     0.000000     1.506240     2
  CG2R63   NG2R61   NG2RC0   CG2RC0     9     0.000000     4.309520     2
  CG2R63   NG2R61    NG2S3     HGP4     9     0.000000     0.460240     1
  CG2R63   NG2R61    NG2S3     HGP4     9     0.000000     0.585760     2
  CG2R63   NG2R61    NG2S3     HGP4     9     0.000000     1.464400     3
  CG2R63   NG2R61    NG2S3     HGP4     9   180.000000     3.054320     4
  CG2R63   NG2R61    OG311     HGP1     9     0.000000     1.631760     1
  CG2R63   NG2R61    OG311     HGP1     9   180.000000     2.594080     2
  CG2R63   NG2R61     CN7B     CN7B     9     0.000000     4.184000     3
  CG2R63   NG2R61     CN7B     ON6B     9     0.000000     0.000000     3
  CG2R63   NG2R61     CN7B      HN7     9     0.000000     0.815880     3
  CG2R63   NG2R61     CN7B      CN8     9     0.000000     4.184000     3
  CG2R63   NG2R61     CN7B      ON6     9     0.000000     0.000000     3
  CG2R66   CG2R61   CG2R61   CG2R66     9   180.000000     0.000000     2
  CG2R66   CG2R61   CG2R61   CG2R67     9   180.000000    12.970400     2
  CG2R66   CG2R61   CG2R61   CG2RC0     9   180.000000    12.970400     2
  CG2R66   CG2R61   CG2R61    CG302     9   180.000000    12.970400     2
  CG2R66   CG2R61   CG2R61    CG311     9   180.000000    12.970400     2
  CG2R66   CG2R61   CG2R61    CG321     9   180.000000    12.970400     2
  CG2R66   CG2R61   CG2R61    CG324     9   180.000000    12.970400     2
  CG2R66   CG2R61   CG2R61    CG331     9   180.000000    12.970400     2
  CG2R66   CG2R61   CG2R61   CG3C31     9   180.000000    15.062400     2
  CG2R66   CG2R61   CG2R61   CG3C41     9   180.000000    12.970400     2
  CG2R66   CG2R61   CG2R61    NG2O1     9   180.000000     8.368000     2
  CG2R66   CG2R61   CG2R61    NG2S1     9   180.000000    12.970400     2
  CG2R66   CG2R61   CG2R61    NG2S3     9   180.000000    20.920000     2
  CG2R66   CG2R61   CG2R61    OG301     9   180.000000    12.970400     2
  CG2R66   CG2R61   CG2R61    OG311     9   180.000000    12.970400     2
  CG2R66   CG2R61   CG2R61    SG3O2     9   180.000000    12.552000     2
  CG2R66   CG2R61   CG2R61    HGR61     9   180.000000    17.572800     2
  CG2R66   CG2R61   CG2R61    HGR62     9   180.000000     7.824080     2
  CG2R66   CG2R61   CG2R62   CG2R62     9   180.000000     2.092000     2
  CG2R66   CG2R61   CG2R62   CG2R63     9   180.000000    12.970400     2
  CG2R66   CG2R61   CG2R62   NG2R61     9   180.000000    29.288000     2
  CG2R66   CG2R61   CG2R62   NG2R62     9   180.000000     5.020800     2
  CG2R66   CG2R61   CG2R66   CG2R61     9   180.000000    12.970400     2
  CG2R66   CG2R61   CG2R66   CG2R62     9   180.000000    12.970400     2
  CG2R66   CG2R61   CG2R66   CG2R64     9   180.000000    12.970400     2
  CG2R66   CG2R61   CG2R66   CG2R66     9   180.000000    12.970400     2
  CG2R66   CG2R61   CG2R66     FGR1     9   180.000000    18.828000     2
  CG2R66   CG2R61   CG2RC0   CG2R51     9   180.000000    16.736000     2
  CG2R66   CG2R61   CG2RC0   CG2R52     9   180.000000     6.276000     2
  CG2R66   CG2R61   CG2RC0   CG2RC0     9   180.000000    12.552000     2
  CG2R66   CG2R61   CG2RC0   CG3C52     9   180.000000     0.000000     2
  CG2R66   CG2R61   CG2RC0   NG2R50     9   180.000000     6.276000     2
  CG2R66   CG2R61   CG2RC0   NG2R51     9   180.000000    12.552000     2
  CG2R66   CG2R61   CG2RC0   SG2R50     9   180.000000     0.000000     2
  CG2R66   CG2R61    CG321    CG331     9   180.000000     0.962320     2
  CG2R66   CG2R61    CG321    NG311     9   180.000000     4.184000     2
  CG2R66   CG2R61    CG321     HGA2     9     0.000000     0.008368     6
  CG2R66   CG2R61    CG324    NG3P2     9     0.000000     0.836800     2
  CG2R66   CG2R61    CG324     HGA2     9     0.000000     0.000000     6
  CG2R66   CG2R61    CG331     HGA3     9     0.000000     0.008368     6
  CG2R66   CG2R61   CG3C31   CG3C31     9   180.000000     0.167360     1
  CG2R66   CG2R61   CG3C31   CG3C31     9   180.000000     6.527040     2
  CG2R66   CG2R61   CG3C31   CG3C31     9     0.000000     2.510400     6
  CG2R66   CG2R61   CG3C31    NG321     9     0.000000     0.251040     2
  CG2R66   CG2R61   CG3C31    NG321     9     0.000000     0.460240     4
  CG2R66   CG2R61   CG3C31    NG3P3     9   180.000000     1.506240     2
  CG2R66   CG2R61   CG3C31    NG3P3     9     0.000000     1.129680     6
  CG2R66   CG2R61   CG3C31     HGA1     9     0.000000     0.000000     6
  CG2R66   CG2R61   CG3C41    CG2O4     9     0.000000     7.196480     2
  CG2R66   CG2R61   CG3C41    CG2O4     9   180.000000     0.753120     3
  CG2R66   CG2R61   CG3C41   CG3C41     9   180.000000     1.213360     2
  CG2R66   CG2R61   CG3C41   CG3C41     9     0.000000     1.213360     3
  CG2R66   CG2R61   CG3C41     HGA1     9     0.000000     0.000000     6
  CG2R66   CG2R61   CG3C53   CG3C52     9     0.000000     1.589920     2
  CG2R66   CG2R61   CG3C53   CG3C52     9     0.000000     0.209200     3
  CG2R66   CG2R61   CG3C53    NG3P2     9     0.000000     1.882800     2
  CG2R66   CG2R61   CG3C53    NG3P2     9     0.000000     0.711280     3
  CG2R66   CG2R61   CG3C53     HGA1     9     0.000000     0.000000     6
  CG2R66   CG2R61    NG2O1    OG2N1     9   180.000000     3.765600     2
  CG2R66   CG2R61   NG2R60   CG2R61     9   180.000000     5.020800     2
  CG2R66   CG2R61   NG2R60   CG2R64     9   180.000000     5.020800     2
  CG2R66   CG2R61   NG2R62   CG2R64     9   180.000000     8.368000     2
  CG2R66   CG2R61   NG2R62   NG2R62     9   180.000000     3.347200     2
  CG2R66   CG2R61   NG2RC0   CG2R51     9   180.000000     0.000000     2
  CG2R66   CG2R61   NG2RC0   CG2RC0     9   180.000000     2.092000     2
  CG2R66   CG2R61    NG2S1    CG2O1     9   180.000000     5.020800     2
  CG2R66   CG2R61    NG2S1    CG2O1     9   180.000000     4.184000     3
  CG2R66   CG2R61    NG2S1     HGP1     9   180.000000     2.092000     2
  CG2R66   CG2R61    NG2S3     HGP4     9   180.000000     5.648400     2
  CG2R66   CG2R61    NG301    CG321     9   180.000000     6.276000     2
  CG2R66   CG2R61    NG301    CG321     9     0.000000     0.627600     4
  CG2R66   CG2R61    NG311    CG1N1     9   180.000000     5.648400     2
  CG2R66   CG2R61    NG311    CG1N1     9   180.000000     0.000000     4
  CG2R66   CG2R61    NG311   HGPAM1     9   180.000000     1.338880     2
  CG2R66   CG2R61    OG311     HGP1     9   180.000000     4.142160     2
  CG2R66   CG2R61   OG3R60    NG311     9     0.000000     0.000000     2
  CG2R66   CG2R61    SG311     HGP3     9     0.000000     4.476880     1
  CG2R66   CG2R61    SG311     HGP3     9   180.000000     2.175680     2
  CG2R66   CG2R61      CT1        C     9   180.000000     2.484459     2
  CG2R66   CG2R61     CTD1        C     9   180.000000     2.484459     2
  CG2R66   CG2R62   CG2R62   NG2R61     9   180.000000    29.288000     2
  CG2R66   CG2R62   CG2R62    NG2S3     9   180.000000    19.079040     2
  CG2R66   CG2R62   CG2R62    HGR62     9   180.000000     4.184000     2
  CG2R66   CG2R62   CG2R63   CG2R62     9   180.000000     6.694400     2
  CG2R66   CG2R62   CG2R63    OG2D4     9   180.000000     4.184000     2
  CG2R66   CG2R62    CG331     HGA3     9     0.000000     1.924640     3
  CG2R66   CG2R62   NG2R61   CG2R64     9   180.000000     3.347200     2
  CG2R66   CG2R62   NG2R61    CG331     9   180.000000    46.024000     2
  CG2R66   CG2R63   NG2R61   CG2R61     9   180.000000     6.276000     2
  CG2R66   CG2R63   NG2R61     HGP1     9   180.000000    20.083200     2
  CG2R66   CG2R63   NG2R62   CG2R64     9   180.000000     1.673600     2
  CG2R66   CG2R64   NG2R51   CG2R51     9     0.000000     0.836800     1
  CG2R66   CG2R64   NG2R51   CG2R51     9   180.000000     4.602400     2
  CG2R66   CG2R64   NG2R51   CG2R51     9     0.000000     2.510400     3
  CG2R66   CG2R64   NG2R51   CG2R53     9     0.000000     0.836800     1
  CG2R66   CG2R64   NG2R51   CG2R53     9   180.000000     4.602400     2
  CG2R66   CG2R64   NG2R51   CG2R53     9     0.000000     2.510400     3
  CG2R66   CG2R64   NG2R60   CG2R61     9   180.000000     5.020800     2
  CG2R66   CG2R64   NG2R61   CG2R64     9   180.000000     2.510400     2
  CG2R66   CG2R64   NG2R61    CG331     9   180.000000     0.000000     2
  CG2R66   CG2R64   NG2R62   CG2R64     9   180.000000    25.104000     2
  CG2R66   CG2R64    NG2S3     HGP4     9   180.000000     8.368000     2
  CG2R66   CG2R64    NG3N1    NG3N1     9   180.000000     4.476880     2
  CG2R66   CG2R64    NG3N1    NG3N1     9     0.000000     2.635920     3
  CG2R66   CG2R64    NG3N1     HGP1     9     0.000000     0.000000     2
  CG2R66   CG2R66   CG2R66   CG2R66     9   180.000000    12.970400     2
  CG2R66   CG2R66   CG2R66     FGR1     9   180.000000    18.828000     2
  CG2R66   CG2R66   CG2RC0   CG2R51     9   180.000000    16.736000     2
  CG2R66   CG2R66   CG2RC0   CG2RC0     9     0.000000     0.000000     2
  CG2R66   CG2R66   CG2RC0   NG2R51     9   180.000000     5.230000     2
  CG2R66   CG2R66   NG2R60   CG2R66     9   180.000000     5.020800     2
  CG2R66   CG2R67   NG2R60   CG2R61     9   180.000000     5.020800     2
  CG2R66   CG2RC0   CG2RC0   CG2R66     9   180.000000    12.552000     2
  CG2R66   CG2RC0   CG2RC0   CG3C51     9   180.000000    27.196000     2
  CG2R66   CG2RC0   CG2RC0   CG3C52     9   180.000000    27.196000     2
  CG2R66   CG2RC0   CG2RC0   NG2R50     9     0.000000     0.000000     2
  CG2R66   CG2RC0   CG2RC0   NG2R51     9   180.000000     6.276000     2
  CG2R66   CG2RC0   CG2RC0   NG3C51     9   180.000000    25.104000     2
  CG2R66   CG2RC0   CG2RC0   OG2R50     9   180.000000     0.000000     2
  CG2R66   CG2RC0   CG2RC0    SG311     9     0.000000     0.125520     2
  CG2R66   CG2RC0   CG3C50   CG2R51     9   180.000000     8.368000     3
  CG2R66   CG2RC0   CG3C50    CG331     9   180.000000     8.368000     3
  CG2R66   CG2RC0   CG3C51   CG3C52     9   180.000000    12.552000     2
  CG2R66   CG2RC0   CG3C51    OG311     9   180.000000     6.527040     2
  CG2R66   CG2RC0   CG3C51    OG311     9   180.000000     0.000000     3
  CG2R66   CG2RC0   CG3C51     HGA1     9   180.000000     2.092000     3
  CG2R66   CG2RC0   CG3C52   CG3C51     9   180.000000    12.552000     2
  CG2R66   CG2RC0   CG3C52   CG3C52     9   180.000000    12.552000     2
  CG2R66   CG2RC0   CG3C52   NG3C51     9     0.000000     0.334720     2
  CG2R66   CG2RC0   CG3C52     HGA2     9   180.000000     2.092000     3
  CG2R66   CG2RC0   CG3C53   CG3C52     9   180.000000    12.552000     2
  CG2R66   CG2RC0   CG3C53    NG3P3     9   180.000000     5.481040     2
  CG2R66   CG2RC0   CG3C53    NG3P3     9   180.000000     0.167360     3
  CG2R66   CG2RC0   CG3C53     HGA1     9   180.000000     2.092000     3
  CG2R66   CG2RC0   NG2R50   CG2R51     9   180.000000    16.736000     2
  CG2R66   CG2RC0   NG2R50   CG2R53     9   180.000000    62.760000     2
  CG2R66   CG2RC0   NG2R50   CG2R57     9   180.000000    16.736000     2
  CG2R66   CG2RC0   NG2R50   OG2R50     9   180.000000     8.242480     2
  CG2R66   CG2RC0   NG2R51   CG2R53     9   180.000000     2.468560     2
  CG2R66   CG2RC0   NG2R51    CG331     9     0.000000     1.129680     2
  CG2R66   CG2RC0   NG2RC0   CG2R51     9   180.000000     4.184000     2
  CG2R66   CG2RC0   NG2RC0   CG2R61     9   180.000000     3.347200     2
  CG2R66   CG2RC0   NG3C51    CG331     9   180.000000     1.171520     2
  CG2R66   CG2RC0   NG3C51   CG3C52     9   180.000000    16.736000     2
  CG2R66   CG2RC0   OG2R50   NG2R50     9   180.000000     7.824080     2
  CG2R67   CG2R61   CG2R61   CG2RC0     9   180.000000    12.552000     2
  CG2R67   CG2R61   CG2R61    CG331     9   180.000000    12.970400     2
  CG2R67   CG2R61   CG2R61   NG2R60     9   180.000000     5.020800     2
  CG2R67   CG2R61   CG2R61    NG2S3     9   180.000000    20.920000     2
  CG2R67   CG2R61   CG2R61    OG311     9   180.000000    12.970400     2
  CG2R67   CG2R61   CG2R61    HGR61     9   180.000000    17.572800     2
  CG2R67   CG2R61   CG2R61    HGR62     9   180.000000    17.572800     2
  CG2R67   CG2R61   CG2RC0   CG2RC0     9   180.000000    12.552000     2
  CG2R67   CG2R61   CG2RC0   NG2R50     9   180.000000     6.276000     2
  CG2R67   CG2R61    CG301    CG301     9   180.000000     0.962320     2
  CG2R67   CG2R61    CG301    CG331     9   180.000000     0.962320     2
  CG2R67   CG2R61    CG301    OG311     9   180.000000     2.928800     2
  CG2R67   CG2R61    CG311    CG2O2     9     0.000000     0.836800     2
  CG2R67   CG2R61    CG311    CG321     9   180.000000     0.962320     2
  CG2R67   CG2R61    CG311     HGA1     9   180.000000     0.418400     6
  CG2R67   CG2R61    CG321    CG311     9   180.000000     0.962320     2
  CG2R67   CG2R61    CG321    CG321     9   180.000000     0.962320     2
  CG2R67   CG2R61    CG321    NG301     9   180.000000     4.184000     2
  CG2R67   CG2R61    CG321    NG311     9   180.000000     4.184000     2
  CG2R67   CG2R61    CG321     HGA2     9     0.000000     0.000000     6
  CG2R67   CG2R61    CG331     HGA3     9     0.000000     0.000000     6
  CG2R67   CG2R61   CG3RC1   CG3RC1     9   180.000000     3.138000     2
  CG2R67   CG2R61   CG3RC1   NG2R52     9     0.000000     0.000000     2
  CG2R67   CG2R61   CG3RC1   NG2R52     9     0.000000     1.924640     4
  CG2R67   CG2R61   CG3RC1   NG2R52     9   180.000000     0.753120     6
  CG2R67   CG2R61   CG3RC1     HGA1     9     0.000000     0.000000     6
  CG2R67   CG2R61   NG2R60   CG2R61     9   180.000000     5.020800     2
  CG2R67   CG2R61   NG2R62   CG2R64     9   180.000000     8.368000     2
  CG2R67   CG2R61   NG2RC0   CG2R51     9   180.000000     0.000000     2
  CG2R67   CG2R61   NG2RC0   CG2RC0     9   180.000000     2.092000     2
  CG2R67   CG2R61    NG301    CG321     9   180.000000     6.276000     2
  CG2R67   CG2R61    NG301    CG321     9     0.000000     0.627600     4
  CG2R67   CG2R61    NG311    CG311     9   180.000000     5.020800     2
  CG2R67   CG2R61    NG311    CG311     9     0.000000     1.255200     4
  CG2R67   CG2R61    NG311    CG321     9   180.000000     5.020800     2
  CG2R67   CG2R61    NG311    CG321     9     0.000000     1.255200     4
  CG2R67   CG2R61    NG311   HGPAM1     9   180.000000     1.338880     2
  CG2R67   CG2R61    OG311     HGP1     9   180.000000     4.142160     2
  CG2R67   CG2R61    SG311   CG2R61     9     0.000000     7.322000     2
  CG2R67   CG2R62   CG2R62   NG2R61     9   180.000000    14.644000     2
  CG2R67   CG2R62   CG2R62    OG312     9     0.000000     0.000000     2
  CG2R67   CG2R62   CG2R62    HGR62     9   180.000000     4.184000     2
  CG2R67   CG2R62   CG2R62    HGR63     9   180.000000     4.184000     2
  CG2R67   CG2R62   CG2R63   NG2R61     9   180.000000     7.531200     2
  CG2R67   CG2R62   CG2R63    OG2D4     9   180.000000     4.184000     2
  CG2R67   CG2R62   NG2R61   CG2R62     9   180.000000    16.736000     2
  CG2R67   CG2R62   NG2R61   CG2R63     9   180.000000     2.510400     2
  CG2R67   CG2R62   NG2R61    CG334     9   180.000000    46.024000     2
  CG2R67   CG2R62   NG2R61     HGP1     9   180.000000     4.184000     2
  CG2R67   CG2R62   NG2R61     HGP2     9   180.000000     4.184000     2
  CG2R67   CG2R62   NG2R62   CG2R62     9   180.000000     8.368000     2
  CG2R67   CG2R62   OG3R60   CG2R63     9     0.000000     3.179840     2
  CG2R67   CG2R64   NG2R62   CG2R64     9     0.000000     8.368000     2
  CG2R67   CG2R64    NG2S3     HGP4     9   180.000000     8.368000     2
  CG2R67   CG2R67   CG2RC0   CG2R61     9   180.000000    14.644000     2
  CG2R67   CG2R67   CG2RC0   CG2R62     9   180.000000    14.644000     2
  CG2R67   CG2R67   CG2RC0   CG2RC0     9   180.000000    11.087600     2
  CG2R67   CG2R67   CG2RC0   CG3C31     9   180.000000    13.723520     2
  CG2R67   CG2R67   CG2RC0   CG3C31     9   180.000000     1.966480     3
  CG2R67   CG2R67   CG2RC0   CG3C50     9   180.000000    18.033040     2
  CG2R67   CG2R67   CG2RC0   CG3C50     9   180.000000    22.091520     3
  CG2R67   CG2R67   CG2RC0   CG3C51     9   180.000000    20.920000     3
  CG2R67   CG2R67   CG2RC0   CG3C52     9   180.000000    20.920000     3
  CG2R67   CG2R67   CG2RC0   CG3C53     9   180.000000     9.957920     2
  CG2R67   CG2R67   CG2RC0   CG3C53     9   180.000000     0.125520     3
  CG2R67   CG2R67   CG2RC0   CG3RC1     9   180.000000    20.920000     3
  CG2R67   CG2R67   CG2RC0   NG2R50     9     0.000000     0.000000     2
  CG2R67   CG2R67   CG2RC0   NG2R51     9   180.000000     1.046000     2
  CG2R67   CG2R67   CG2RC0   OG2R50     9     0.000000     0.000000     2
  CG2R67   CG2R67   CG2RC0   SG2R50     9   180.000000     4.184000     2
  CG2R67   CG2R67   NG2R60   CG2R61     9   180.000000    12.970400     2
  CG2R67   CG2R67   NG2R60   CG2R62     9   180.000000    12.970400     2
  CG2R67   CG2R67   NG2R61   CG2R62     9   180.000000    13.472480     2
  CG2R67   CG2R67   NG2R61     FGP1     9   180.000000    14.392960     2
  CG2R67   CG2R67   NG2R62   CG2R64     9   180.000000    20.794480     2
  CG2R67   CG2R67   OG3R60   CG2R63     9   180.000000    14.351120     2
  CG2R67   CG2RC0   CG2RC0   CG3C52     9   180.000000    38.325440     2
  CG2R67   CG2RC0   CG3C31   CG2RC0     9   180.000000    14.392960     2
  CG2R67   CG2RC0   CG3C31   CG3C31     9     0.000000     0.167360     2
  CG2R67   CG2RC0   CG3C31   CG3C31     9   180.000000     0.000000     4
  CG2R67   CG2RC0   CG3C50   CG2RC0     9     0.000000     0.292880     2
  CG2R67   CG2RC0   CG3C50   CG2RC0     9     0.000000     3.054320     3
  CG2R67   CG2RC0   CG3C50    CG321     9   180.000000     5.606560     3
  CG2R67   CG2RC0   CG3C50    OG311     9     0.000000     3.556400     2
  CG2R67   CG2RC0   CG3C50    OG311     9     0.000000    11.673360     3
  CG2R67   CG2RC0   CG3C51   CG2RC0     9   180.000000     3.138000     3
  CG2R67   CG2RC0   CG3C51    OG301     9     0.000000     0.292880     2
  CG2R67   CG2RC0   CG3C51    OG301     9     0.000000     3.514560     3
  CG2R67   CG2RC0   CG3C51    OG311     9     0.000000     4.100320     2
  CG2R67   CG2RC0   CG3C51    OG311     9     0.000000     3.891120     3
  CG2R67   CG2RC0   CG3C51     HGA1     9     0.000000     2.092000     3
  CG2R67   CG2RC0   CG3C52   CG2RC0     9   180.000000     3.138000     3
  CG2R67   CG2RC0   CG3C52   CG3C52     9     0.000000     0.000000     2
  CG2R67   CG2RC0   CG3C52     HGA2     9     0.000000     2.092000     3
  CG2R67   CG2RC0   CG3C53   CG2RC0     9   180.000000     3.138000     3
  CG2R67   CG2RC0   CG3C53   NG2R61     9   180.000000     0.418400     2
  CG2R67   CG2RC0   CG3C53   NG2R61     9   180.000000     1.631760     3
  CG2R67   CG2RC0   CG3C53     HGA1     9     0.000000     2.092000     3
  CG2R67   CG2RC0   CG3RC1   CG2RC0     9   180.000000     1.715440     2
  CG2R67   CG2RC0   CG3RC1   CG2RC0     9   180.000000     0.000000     3
  CG2R67   CG2RC0   CG3RC1    CG321     9     0.000000     2.803280     3
  CG2R67   CG2RC0   CG3RC1     HGA1     9     0.000000     0.000000     3
  CG2R67   CG2RC0   NG2R50   CG2RC0     9   180.000000    28.451200     2
  CG2R67   CG2RC0   NG2R51   CG2R61     9   180.000000     5.648400     2
  CG2R67   CG2RC0   NG2R51   CG2RC0     9   180.000000     2.092000     2
  CG2R67   CG2RC0   NG2R51    CG331     9   180.000000     5.690240     2
  CG2R67   CG2RC0   NG2R51     HGP1     9   180.000000     1.046000     2
  CG2R67   CG2RC0   OG2R50   CG2RC0     9   180.000000    27.447040     2
  CG2R67   CG2RC0   SG2R50   CG2RC0     9   180.000000    14.141920     2
  CG2R71   CG2R61   CG2R61    OG301     9   180.000000    15.229760     2
  CG2R71   CG2R61   CG2R61    HGR61     9     0.000000     4.142160     2
  CG2R71   CG2R71   CG2R71   CG2R71     9   180.000000     6.694400     2
  CG2R71   CG2R71   CG2R71   CG2RC7     9   180.000000     6.694400     2
  CG2R71   CG2R71   CG2R71    OG2D3     9     0.000000     0.000000     2
  CG2R71   CG2R71   CG2R71    SG2D1     9     0.000000     0.167360     2
  CG2R71   CG2R71   CG2R71    SG311     9   180.000000    11.673360     2
  CG2R71   CG2R71   CG2R71    HGR71     9   180.000000    13.388800     2
  CG2R71   CG2R71   CG2RC7   CG2R51     9   180.000000    12.552000     2
  CG2R71   CG2R71   CG2RC7   CG2RC7     9   180.000000    12.552000     2
  CG2R71   CG2R71   CG2RC7   NG2R50     9   180.000000    12.217280     2
  CG2R71   CG2R71   CG2RC7   OG2R50     9     0.000000     0.753120     2
  CG2R71   CG2R71   CG2RC7   OG3C51     9   180.000000    13.012240     2
  CG2R71   CG2R71    SG311    CG331     9   180.000000    18.869840     2
  CG2R71   CG2R71    SG311    CG331     9   180.000000     0.000000     4
  CG2R71   CG2RC7   CG2RC7   CG2R71     9   180.000000     0.000000     2
  CG2R71   CG2RC7   CG2RC7   NG2R50     9   180.000000     0.209200     2
  CG2R71   CG2RC7   CG2RC7   OG2R50     9     0.000000     0.000000     2
  CG2R71   CG2RC7   CG2RC7   OG3C51     9   180.000000     3.514560     2
  CG2R71   CG2RC7   NG2R50   CG2R53     9   180.000000    35.689520     2
  CG2R71   CG2RC7   OG2R50   CG2R53     9   180.000000    22.258880     2
  CG2R71   CG2RC7   OG3C51   CG2R53     9     0.000000     0.000000     2
  CG2R71   CG2RC7   OG3C51   CG2R53     9     0.000000     4.100320     3
  CG2R71    NG2S1    NG3N1   CG2R71     9     0.000000     4.393200     1
  CG2R71    NG2S1    NG3N1   CG2R71     9     0.000000     0.251040     2
  CG2R71    NG2S1    NG3N1   CG2R71     9     0.000000     3.263520     3
  CG2R71    NG2S1    NG3N1   CG2R71     9     0.000000     3.974800     4
  CG2R71    NG2S1    NG3N1   CG2R71     9     0.000000     0.711280     6
  CG2R71    NG2S1    NG3N1     HGP1     9   180.000000     0.627600     3
  CG2R71    NG2S1    NG3N1     HGP1     9     0.000000     1.715440     4
  NG2R60   CG2R61   CG2R61   NG2R60     9   180.000000     3.765600     2
  NG2R60   CG2R61   CG2R61   NG2R61     9   180.000000     8.075120     2
  NG2R60   CG2R61   CG2R61   NG2R62     9   180.000000    12.552000     2
  NG2R60   CG2R61   CG2R61   NG2RC0     9   180.000000     8.075120     2
  NG2R60   CG2R61   CG2R61    NG2S1     9   180.000000    20.920000     2
  NG2R60   CG2R61   CG2R61    NG2S3     9   180.000000    20.920000     2
  NG2R60   CG2R61   CG2R61    NG311     9   180.000000    17.112560     2
  NG2R60   CG2R61   CG2R61   NG3C51     9   180.000000    21.505760     2
  NG2R60   CG2R61   CG2R61    OG301     9   180.000000    11.087600     2
  NG2R60   CG2R61   CG2R61    OG311     9   180.000000     4.184000     2
  NG2R60   CG2R61   CG2R61    SG302     9     0.000000     0.000000     2
  NG2R60   CG2R61   CG2R61    SG3O1     9   180.000000     8.786400     2
  NG2R60   CG2R61   CG2R61    BRGR1     9   180.000000    12.552000     2
  NG2R60   CG2R61   CG2R61    HGR61     9   180.000000    11.715200     2
  NG2R60   CG2R61   CG2R61    HGR62     9   180.000000    25.104000     2
  NG2R60   CG2R61   CG2R64    NG2D1     9     0.000000     0.000000     2
  NG2R60   CG2R61   CG2R64   NG2R60     9     0.000000     6.276000     2
  NG2R60   CG2R61   CG2R64   NG2R61     9     0.000000     1.506240     2
  NG2R60   CG2R61   CG2R64   NG2R62     9     0.000000     6.276000     2
  NG2R60   CG2R61   CG2R64    NG2S3     9   180.000000    14.351120     2
  NG2R60   CG2R61   CG2R64   NG3C51     9   180.000000    12.803040     2
  NG2R60   CG2R61   CG2R66   CG2R61     9   180.000000     5.020800     2
  NG2R60   CG2R61   CG2R66     FGR1     9   180.000000    12.970400     2
  NG2R60   CG2R61   CG2R67   CG2R61     9   180.000000     5.020800     2
  NG2R60   CG2R61   CG2R67   CG2R67     9   180.000000     4.184000     2
  NG2R60   CG2R61   CG2RC0   CG2R51     9   180.000000     0.962320     2
  NG2R60   CG2R61   CG2RC0   CG2R67     9     0.000000     0.209200     2
  NG2R60   CG2R61   CG2RC0   CG2RC0     9     0.000000     0.000000     2
  NG2R60   CG2R61   CG2RC0   CG3C52     9   180.000000    20.041360     2
  NG2R60   CG2R61   CG2RC0   NG2R50     9   180.000000     0.000000     2
  NG2R60   CG2R61   CG2RC0   NG2R51     9   180.000000     0.000000     2
  NG2R60   CG2R61   CG2RC0   NG2RC0     9     0.000000     0.000000     2
  NG2R60   CG2R61   CG2RC0   OG2R50     9   180.000000    11.673360     2
  NG2R60   CG2R61   CG2RC0   SG2R50     9   180.000000     4.978960     2
  NG2R60   CG2R61    CG311    CG2O1     9     0.000000     0.000000     2
  NG2R60   CG2R61    CG311    CG2O1     9     0.000000     1.297040     3
  NG2R60   CG2R61    CG311    CG2O2     9   180.000000     3.598240     2
  NG2R60   CG2R61    CG311    CG2O2     9     0.000000     5.648400     4
  NG2R60   CG2R61    CG311    CG2O3     9     0.000000     0.000000     2
  NG2R60   CG2R61    CG311    CG314     9   180.000000     8.911920     2
  NG2R60   CG2R61    CG311    CG314     9     0.000000     1.882800     3
  NG2R60   CG2R61    CG311    CG321     9   180.000000     0.962320     2
  NG2R60   CG2R61    CG311    OG311     9   180.000000     0.711280     2
  NG2R60   CG2R61    CG311    OG311     9     0.000000     4.100320     4
  NG2R60   CG2R61    CG311     HGA1     9     0.000000     0.000000     6
  NG2R60   CG2R61    CG321    CG321     9   180.000000     0.962320     2
  NG2R60   CG2R61    CG321    CG331     9   180.000000     0.962320     2
  NG2R60   CG2R61    CG321    NG301     9   180.000000     0.000000     2
  NG2R60   CG2R61    CG321    NG301     9   180.000000     5.188160     4
  NG2R60   CG2R61    CG321    NG311     9   180.000000     0.000000     2
  NG2R60   CG2R61    CG321     HGA2     9     0.000000     0.008368     6
  NG2R60   CG2R61    CG322    CG321     9     0.000000     0.836800     2
  NG2R60   CG2R61    CG322    CG321     9     0.000000     0.502080     6
  NG2R60   CG2R61    CG322     FGA1     9   180.000000     0.669440     2
  NG2R60   CG2R61    CG322     FGA1     9   180.000000     4.142160     6
  NG2R60   CG2R61    CG331     HGA3     9   180.000000     0.012552     6
  NG2R60   CG2R61   CG3C41   CG3C41     9     0.000000     2.594080     2
  NG2R60   CG2R61   CG3C41   CG3C41     9   180.000000     0.376560     4
  NG2R60   CG2R61   CG3C41    OG311     9   180.000000     8.116960     2
  NG2R60   CG2R61   CG3C41    OG311     9   180.000000     2.175680     4
  NG2R60   CG2R61   CG3C41     HGA1     9     0.000000     0.000000     3
  NG2R60   CG2R61   CG3C50   CG2R53     9   180.000000     1.004160     2
  NG2R60   CG2R61   CG3C50    CG331     9     0.000000     8.577200     2
  NG2R60   CG2R61   CG3C50   NG2R53     9     0.000000     0.041840     2
  NG2R60   CG2R61   CG3C50   NG2R53     9     0.000000     4.100320     4
  NG2R60   CG2R61   CG3C50   NG2R53     9     0.000000     0.209200     6
  NG2R60   CG2R61   CG3C53   CG3C52     9     0.000000     9.372160     2
  NG2R60   CG2R61   CG3C53    NG3P2     9   180.000000    13.137760     1
  NG2R60   CG2R61   CG3C53    NG3P2     9   180.000000    11.464160     2
  NG2R60   CG2R61   CG3C53     HGA1     9     0.000000     0.000000     3
  NG2R60   CG2R61    OG301    CG331     9   180.000000     8.744560     2
  NG2R60   CG2R61    OG301    CG331     9   180.000000     1.506240     4
  NG2R60   CG2R61    SG311    CG321     9   180.000000     5.188160     2
  NG2R60   CG2R61    SG311    CG321     9     0.000000     1.046000     4
  NG2R60   CG2R61    SG3O1    OG2P1     9     0.000000     0.418400     3
  NG2R60   CG2R61    SG3O1    OG2P1     9     0.000000     0.083680     6
  NG2R60   CG2R62   CG2R62   NG2R61     9     0.000000     0.627600     2
  NG2R60   CG2R62   CG2R62   NG2RC0     9     0.000000     0.000000     2
  NG2R60   CG2R62   CG2R62    NG3N1     9   180.000000     9.330320     2
  NG2R60   CG2R62   CG2R62    OG312     9   180.000000    13.263280     2
  NG2R60   CG2R62   CG2R62   OG3R60     9   180.000000     6.694400     2
  NG2R60   CG2R62   CG2R62    HGR62     9   180.000000    25.104000     2
  NG2R60   CG2R62   CG2R62    HGR63     9   180.000000     4.602400     2
  NG2R60   CG2R62   CG2R63   CG2R62     9     0.000000     0.000000     2
  NG2R60   CG2R62   CG2R63   NG2R61     9     0.000000     0.000000     2
  NG2R60   CG2R62   CG2R63    OG2D4     9   180.000000     7.405680     2
  NG2R60   CG2R62   CG2R64   NG2R61     9     0.000000     9.874240     1
  NG2R60   CG2R62   CG2R64   NG2R61     9   180.000000    10.794720     2
  NG2R60   CG2R62   CG2R64   NG2R61     9     0.000000     0.376560     3
  NG2R60   CG2R62   CG2R64   NG2R62     9     0.000000     3.138000     1
  NG2R60   CG2R62   CG2R64   NG2R62     9     0.000000     1.171520     2
  NG2R60   CG2R62   CG2R64   NG2R62     9     0.000000     2.677760     3
  NG2R60   CG2R62   CG2R64    NG301     9   180.000000     6.945440     2
  NG2R60   CG2R62   CG2RC0   NG2R52     9   180.000000     0.000000     2
  NG2R60   CG2R62   CG2RC0   NG2RC0     9   180.000000    16.233920     2
  NG2R60   CG2R62    CG331     HGA3     9   180.000000     0.000000     6
  NG2R60   CG2R62    NG2S3     HGP4     9   180.000000    11.882560     2
  NG2R60   CG2R62   OG3R60   CG2R62     9   180.000000    16.192080     2
  NG2R60   CG2R62   OG3R60   CG2R63     9   180.000000    14.978720     2
  NG2R60   CG2R64   CG2R64   NG2R60     9     0.000000     1.380720     2
  NG2R60   CG2R64   CG2R64    NG2S3     9   180.000000     1.046000     2
  NG2R60   CG2R64   CG2R64   NG3C51     9   180.000000     2.845120     2
  NG2R60   CG2R64   CG2R66   CG2R61     9   180.000000     5.020800     2
  NG2R60   CG2R64   CG2R66     FGR1     9   180.000000    15.815520     2
  NG2R60   CG2R64   CG2RC0   CG2R51     9   180.000000     2.008320     2
  NG2R60   CG2R64   CG2RC0   NG2R52     9   180.000000     3.263520     2
  NG2R60   CG2R64   CG2RC0   NG2RC0     9     0.000000     0.167360     2
  NG2R60   CG2R64    NG2D1   CG25C1     9   180.000000     6.861760     1
  NG2R60   CG2R64    NG2D1   CG25C1     9   180.000000    11.087600     2
  NG2R60   CG2R64    NG2D1   CG25C1     9     0.000000     0.125520     3
  NG2R60   CG2R64    NG2D1   CG25C1     9   180.000000     2.133840     4
  NG2R60   CG2R64    NG2D1   CG25C2     9   180.000000     6.861760     1
  NG2R60   CG2R64    NG2D1   CG25C2     9   180.000000    11.087600     2
  NG2R60   CG2R64    NG2D1   CG25C2     9     0.000000     0.125520     3
  NG2R60   CG2R64    NG2D1   CG25C2     9   180.000000     2.133840     4
  NG2R60   CG2R64    NG2D1   CG2DC1     9     0.000000     2.301200     1
  NG2R60   CG2R64    NG2D1   CG2DC1     9   180.000000     5.564720     2
  NG2R60   CG2R64    NG2D1   CG2DC1     9   180.000000     0.334720     3
  NG2R60   CG2R64    NG2D1   CG2DC2     9     0.000000     2.301200     1
  NG2R60   CG2R64    NG2D1   CG2DC2     9   180.000000     5.564720     2
  NG2R60   CG2R64    NG2D1   CG2DC2     9   180.000000     0.334720     3
  NG2R60   CG2R64    NG2O1    OG2N1     9   180.000000     1.046000     2
  NG2R60   CG2R64    NG2O1    OG2N1     9   180.000000     0.292880     6
  NG2R60   CG2R64    NG2P1   CG2R71     9     0.000000     0.125520     2
  NG2R60   CG2R64    NG2P1     HGP2     9   180.000000     7.949600     2
  NG2R60   CG2R64   NG2R51   CG2R51     9   180.000000     4.184000     2
  NG2R60   CG2R64   NG2R51   CG2RC0     9   180.000000     4.184000     2
  NG2R60   CG2R64   NG2R51   NG2R50     9     0.000000     0.836800     1
  NG2R60   CG2R64   NG2R51   NG2R50     9   180.000000     4.602400     2
  NG2R60   CG2R64   NG2R51   NG2R50     9     0.000000     2.510400     3
  NG2R60   CG2R64   NG2R53   CG2R53     9   180.000000     0.753120     2
  NG2R60   CG2R64   NG2R53   CG2R53     9   180.000000     0.920480     4
  NG2R60   CG2R64    NG2S1    CG2O1     9   180.000000     6.276000     1
  NG2R60   CG2R64    NG2S1    CG2O1     9   180.000000    10.878400     2
  NG2R60   CG2R64    NG2S1    CG2O1     9   180.000000     0.753120     3
  NG2R60   CG2R64    NG2S1     HGP1     9   180.000000     2.092000     2
  NG2R60   CG2R64    NG2S3     HGP4     9   180.000000     4.184000     2
  NG2R60   CG2R64    NG301    CG321     9     0.000000     1.757280     2
  NG2R60   CG2R64    NG301    SG3O2     9   180.000000     5.104480     2
  NG2R60   CG2R64    NG301    SG3O2     9     0.000000     0.209200     3
  NG2R60   CG2R64    NG311   CG2R61     9   180.000000    14.392960     2
  NG2R60   CG2R64    NG311    CG321     9   180.000000     4.602400     1
  NG2R60   CG2R64    NG311    CG321     9   180.000000     8.368000     2
  NG2R60   CG2R64    NG311    OG311     9   180.000000    11.882560     1
  NG2R60   CG2R64    NG311    OG311     9     0.000000     0.167360     2
  NG2R60   CG2R64    NG311     HGP1     9   180.000000     6.694400     2
  NG2R60   CG2R64    NG311   HGPAM1     9   180.000000     6.694400     2
  NG2R60   CG2R64   NG3C51   CG3C51     9   180.000000     0.209200     1
  NG2R60   CG2R64   NG3C51   CG3C51     9   180.000000    25.606080     2
  NG2R60   CG2R64   NG3C51   CG3C52     9     0.000000     0.418400     1
  NG2R60   CG2R64   NG3C51   CG3C52     9   180.000000     3.221680     2
  NG2R60   CG2R64   NG3C51   CG3C52     9   180.000000     4.267680     3
  NG2R60   CG2R64    NG3N1    NG3N1     9   180.000000    11.966240     1
  NG2R60   CG2R64    NG3N1    NG3N1     9   180.000000     1.799120     2
  NG2R60   CG2R64    NG3N1    NG3N1     9     0.000000     0.083680     3
  NG2R60   CG2R64    NG3N1     HGP1     9   180.000000    10.543680     2
  NG2R60   CG2R64   OG3R60   CG2R63     9   180.000000     7.740400     2
  NG2R60   CG2R66   CG2R66     FGR1     9   180.000000    12.970400     2
  NG2R60   CG2R67   CG2R67   NG2R60     9   180.000000     1.569000     1
  NG2R60   CG2R67   CG2R67   NG2R60     9   180.000000     3.932960     2
  NG2R60   CG2R67   CG2R67   NG2R60     9     0.000000     0.794960     3
  NG2R60   CG2R67   CG2R67   NG2R60     9     0.000000     0.669440     4
  NG2R60   CG2R67   CG2RC0   CG2R61     9   180.000000     8.158800     2
  NG2R60   CG2R67   CG2RC0   CG3C50     9   180.000000    24.016160     2
  NG2R60   CG2R67   CG2RC0   CG3C52     9   180.000000    20.292400     2
  NG2R60   CG2R67   NG2R67   CG2R62     9   180.000000    10.334480     2
  NG2R60   CG2R67   NG2R67   CG2R62     9   180.000000     0.041840     4
  NG2R60   CG2R67   NG2R67   CG2R62     9   180.000000     0.418400     6
  NG2R60   CG2R67   NG2R67   CG2R63     9     0.000000     4.267680     2
  NG2R60   CG2R67   NG2R67   CG2R63     9   180.000000     2.635920     4
  NG2R60   CG2R67   OG3R60   CG2R63     9     0.000000     0.000000     2
  NG2R60   CG2RC0   NG2R51    CG331     9   180.000000    46.024000     2
  NG2R60   CG2RC0   NG2R51   NG2R50     9     0.000000     1.129680     2
  NG2R62   CG2R61   CG2R61   NG2R62     9   180.000000     2.092000     2
  NG2R62   CG2R61   CG2R61    NG2S3     9   180.000000    20.920000     2
  NG2R62   CG2R61   CG2R61    NG301     9   180.000000    19.246400     2
  NG2R62   CG2R61   CG2R61    NG311     9   180.000000    16.359440     2
  NG2R62   CG2R61   CG2R61   NG3C51     9   180.000000    12.217280     2
  NG2R62   CG2R61   CG2R61    NG3N1     9   180.000000    11.254960     2
  NG2R62   CG2R61   CG2R61    OG301     9   180.000000    14.518480     2
  NG2R62   CG2R61   CG2R61    OG311     9   180.000000     4.184000     2
  NG2R62   CG2R61   CG2R61    HGR61     9   180.000000    11.715200     2
  NG2R62   CG2R61   CG2R61    HGR62     9   180.000000    25.104000     2
  NG2R62   CG2R61   CG2R66   CG2R61     9   180.000000     5.020800     2
  NG2R62   CG2R61   CG2R66   CG2R64     9   180.000000     5.020800     2
  NG2R62   CG2R61   CG2R66   CG2R66     9   180.000000     5.020800     2
  NG2R62   CG2R61   CG2R66     FGR1     9   180.000000    12.970400     2
  NG2R62   CG2R61   CG2R67   CG2R64     9   180.000000     5.020800     2
  NG2R62   CG2R61   CG2R67   CG2R67     9   180.000000     4.184000     2
  NG2R62   CG2R61   CG2R67   NG2R60     9   180.000000    11.715200     2
  NG2R62   CG2R61   CG2RC0   CG2R51     9   180.000000     9.204800     2
  NG2R62   CG2R61   CG2RC0   CG2R52     9   180.000000     9.204800     2
  NG2R62   CG2R61   CG2RC0   CG2R67     9   180.000000     2.928800     2
  NG2R62   CG2R61   CG2RC0   CG2RC0     9   180.000000     9.204800     2
  NG2R62   CG2R61   CG2RC0   NG2R50     9   180.000000     0.000000     2
  NG2R62   CG2R61   CG2RC0   NG2R51     9   180.000000     0.000000     2
  NG2R62   CG2R61   CG2RC0   NG2R52     9   180.000000     0.000000     2
  NG2R62   CG2R61   CG2RC0   OG2R50     9   180.000000    18.367760     2
  NG2R62   CG2R61    CG301    CG321     9     0.000000     0.083680     2
  NG2R62   CG2R61    CG301    CG321     9   180.000000     0.878640     6
  NG2R62   CG2R61    CG301    CG331     9     0.000000     0.000000     2
  NG2R62   CG2R61    CG301    CG331     9     0.000000     2.008320     6
  NG2R62   CG2R61    CG311    CG331     9   180.000000     0.962320     2
  NG2R62   CG2R61    CG311    NG311     9     0.000000     0.000000     2
  NG2R62   CG2R61    CG311     HGA1     9     0.000000     0.000000     6
  NG2R62   CG2R61    CG312     FGA2     9   180.000000     6.108640     2
  NG2R62   CG2R61    CG312     FGA2     9   180.000000     0.209200     6
  NG2R62   CG2R61    CG312     HGA7     9     0.000000     3.681920     3
  NG2R62   CG2R61    CG312     HGA7     9   180.000000     0.878640     4
  NG2R62   CG2R61    CG321    NG301     9   180.000000     0.585760     2
  NG2R62   CG2R61    CG321    NG301     9   180.000000     2.384880     4
  NG2R62   CG2R61    CG321     HGA2     9     0.000000     0.000000     6
  NG2R62   CG2R61    CG331     HGA3     9   180.000000     0.000000     6
  NG2R62   CG2R61    OG301    CG331     9   180.000000     9.790560     2
  NG2R62   CG2R61    OG301    CG331     9     0.000000     0.878640     4
  NG2R62   CG2R61    OG311     HGP1     9   180.000000     4.142160     2
  NG2R62   CG2R61    SG311   CG2D1O     9     0.000000     0.000000     2
  NG2R62   CG2R61    SG311   CG2D2O     9     0.000000     0.000000     2
  NG2R62   CG2R61    SG3O2    CG331     9   180.000000     0.669440     2
  NG2R62   CG2R61    SG3O2    CG331     9     0.000000     1.715440     4
  NG2R62   CG2R61    SG3O2    OG2P1     9   180.000000     0.000000     6
  NG2R62   CG2R62   CG2R62    NG2S3     9   180.000000    28.158320     2
  NG2R62   CG2R62   CG2R62    OG301     9   180.000000     6.694400     2
  NG2R62   CG2R62   CG2R62    HGR62     9   180.000000    25.104000     2
  NG2R62   CG2R62   CG2R62    HGR63     9   180.000000     4.602400     2
  NG2R62   CG2R62   CG2R62     CN7B     9   180.000000    37.656000     2
  NG2R62   CG2R62   CG2R63   NG2R61     9   180.000000     3.640080     2
  NG2R62   CG2R62   CG2R63    OG2D4     9   180.000000     6.024960     2
  NG2R62   CG2R62   CG2R67   CG2R62     9   180.000000     5.020800     2
  NG2R62   CG2R62   CG2R67   CG2R67     9   180.000000     4.184000     2
  NG2R62   CG2R62   CG2RC0   CG2R51     9   180.000000     9.204800     2
  NG2R62   CG2R62   CG2RC0   NG2RC0     9   180.000000     9.874240     2
  NG2R62   CG2R62    CG311    CG321     9     0.000000    11.589680     2
  NG2R62   CG2R62    CG311    CG324     9     0.000000     0.083680     2
  NG2R62   CG2R62    CG311    CG324     9     0.000000     1.799120     3
  NG2R62   CG2R62    CG311     HGA1     9     0.000000     0.000000     6
  NG2R62   CG2R62    CG312     FGA2     9   180.000000     4.058480     2
  NG2R62   CG2R62    CG312     FGA2     9   180.000000     0.167360     4
  NG2R62   CG2R62    CG312     HGA7     9     0.000000     0.878640     2
  NG2R62   CG2R62    CG312     HGA7     9     0.000000     2.175680     3
  NG2R62   CG2R62    CG321    CG321     9   180.000000     0.962320     2
  NG2R62   CG2R62    CG321    NG2S0     9     0.000000     0.000000     2
  NG2R62   CG2R62    CG321    NG2S0     9     0.000000     5.648400     4
  NG2R62   CG2R62    CG321    NG2S0     9   180.000000     0.878640     6
  NG2R62   CG2R62    CG321    NG301     9     0.000000     0.000000     2
  NG2R62   CG2R62    CG321     HGA2     9     0.000000     0.000000     6
  NG2R62   CG2R62    CG324    NG3P1     9     0.000000     0.000000     2
  NG2R62   CG2R62    CG324    NG3P3     9   180.000000    22.886480     1
  NG2R62   CG2R62    CG324    NG3P3     9     0.000000     4.142160     6
  NG2R62   CG2R62    CG324     HGA2     9     0.000000     0.000000     6
  NG2R62   CG2R62    CG331     HGA3     9   180.000000     0.000000     6
  NG2R62   CG2R62   CG3C41   CG3C41     9   180.000000     4.686080     1
  NG2R62   CG2R62   CG3C41   CG3C41     9     0.000000     3.138000     2
  NG2R62   CG2R62   CG3C41   CG3C41     9   180.000000     0.083680     6
  NG2R62   CG2R62   CG3C41     HGA1     9     0.000000     0.000000     3
  NG2R62   CG2R62    NG2D1    CG2N2     9     0.000000    18.618800     1
  NG2R62   CG2R62    NG2D1    CG2N2     9     0.000000     0.753120     2
  NG2R62   CG2R62    NG2D1    CG2N2     9     0.000000     1.380720     3
  NG2R62   CG2R62   NG2R61   CG2R62     9   180.000000     0.627600     2
  NG2R62   CG2R62   NG2R61    CG324     9     0.000000     0.460240     2
  NG2R62   CG2R62   NG2R61     HGP2     9   180.000000    13.388800     2
  NG2R62   CG2R62    OG311     HGP1     9     0.000000    10.460000     1
  NG2R62   CG2R62    OG311     HGP1     9   180.000000    11.296800     2
  NG2R62   CG2R62    OG311     HGP1     9     0.000000     3.556400     3
  NG2R62   CG2R63   CG2R66   CG2R62     9     0.000000     3.640080     2
  NG2R62   CG2R63   CG2R66     FGR1     9     0.000000     1.840960     2
  NG2R62   CG2R63   CG2RC0   CG2R51     9     0.000000     0.083680     2
  NG2R62   CG2R63   CG2RC0   CG2RC0     9     0.000000    25.815280     2
  NG2R62   CG2R63   NG2R61   CG2R61     9   180.000000     2.510400     2
  NG2R62   CG2R63   NG2R61   CG2R62     9   180.000000     2.510400     2
  NG2R62   CG2R63   NG2R61   CG2R63     9   180.000000     5.230000     2
  NG2R62   CG2R63   NG2R61   CG2R64     9   180.000000     5.230000     2
  NG2R62   CG2R63   NG2R61    CG331     9   180.000000    46.024000     2
  NG2R62   CG2R63   NG2R61   CG3C51     9   180.000000    46.024000     2
  NG2R62   CG2R63   NG2R61   CG3RC1     9   180.000000     3.765600     2
  NG2R62   CG2R63   NG2R61   NG2RC0     9     0.000000     0.920480     2
  NG2R62   CG2R63   NG2R61     HGP1     9   180.000000    10.962080     2
  NG2R62   CG2R63   NG2R61     CN7B     9   180.000000    46.024000     2
  NG2R62   CG2R63   NG2RC0   CG2R51     9     0.000000     0.000000     2
  NG2R62   CG2R63   NG2RC0   CG2RC0     9     0.000000     2.384880     2
  NG2R62   CG2R63   CG2R62     CN7B     9   180.000000    37.656000     2
  NG2R62   CG2R64   CG2R64   NG2R62     9   180.000000     4.100320     2
  NG2R62   CG2R64   CG2R66   CG2R61     9   180.000000     5.020800     2
  NG2R62   CG2R64   CG2R66     FGR1     9   180.000000    14.769520     2
  NG2R62   CG2R64   CG2R67   CG2R61     9   180.000000     5.020800     2
  NG2R62   CG2R64   CG2R67   CG2R67     9   180.000000     4.184000     2
  NG2R62   CG2R64   CG2RC0   CG2R51     9   180.000000     2.217520     2
  NG2R62   CG2R64   CG2RC0   CG2R52     9     0.000000     0.376560     2
  NG2R62   CG2R64   CG2RC0   CG2RC0     9   180.000000     7.531200     2
  NG2R62   CG2R64   CG2RC0   NG2R50     9   180.000000     8.368000     2
  NG2R62   CG2R64   CG2RC0   NG2R51     9   180.000000     0.878640     2
  NG2R62   CG2R64    CG301    CG331     9     0.000000     0.627600     2
  NG2R62   CG2R64    CG301    CG331     9   180.000000     0.125520     6
  NG2R62   CG2R64    CG301    NG321     9   180.000000     1.087840     2
  NG2R62   CG2R64    CG301    NG321     9     0.000000     0.753120     6
  NG2R62   CG2R64    CG302     FGA3     9     0.000000     0.041840     2
  NG2R62   CG2R64    CG302     FGA3     9   180.000000     0.167360     6
  NG2R62   CG2R64    CG311    CG331     9   180.000000     0.460240     2
  NG2R62   CG2R64    CG311    CG331     9     0.000000     2.301200     4
  NG2R62   CG2R64    CG311    OG311     9     0.000000     3.347200     2
  NG2R62   CG2R64    CG311    OG311     9     0.000000     1.548080     3
  NG2R62   CG2R64    CG311     HGA1     9   180.000000     0.000000     6
  NG2R62   CG2R64    CG314    CG321     9   180.000000     0.292880     1
  NG2R62   CG2R64    CG314    CG321     9   180.000000     0.836800     2
  NG2R62   CG2R64    CG314    CG321     9   180.000000     0.209200     6
  NG2R62   CG2R64    CG314    NG3P2     9   180.000000     0.585760     1
  NG2R62   CG2R64    CG314    NG3P2     9   180.000000     5.020800     2
  NG2R62   CG2R64    CG314    NG3P2     9     0.000000     0.292880     6
  NG2R62   CG2R64    CG314     HGA1     9     0.000000     0.000000     3
  NG2R62   CG2R64    CG321    NG311     9     0.000000     4.476880     2
  NG2R62   CG2R64    CG321    NG311     9     0.000000     2.301200     3
  NG2R62   CG2R64    CG321    NG321     9   180.000000     0.000000     2
  NG2R62   CG2R64    CG321    NG321     9     0.000000     0.000000     3
  NG2R62   CG2R64    CG321     HGA2     9   180.000000     0.000000     6
  NG2R62   CG2R64    CG324    NG3P3     9     0.000000     9.288480     2
  NG2R62   CG2R64    CG324    NG3P3     9   180.000000    10.167120     3
  NG2R62   CG2R64    CG324     HGA2     9   180.000000     0.000000     6
  NG2R62   CG2R64    CG331     HGA3     9   180.000000     0.012552     6
  NG2R62   CG2R64   CG3C31   CG3C31     9   180.000000     3.849280     2
  NG2R62   CG2R64   CG3C31   CG3C31     9     0.000000     1.380720     6
  NG2R62   CG2R64   CG3C31     HGA1     9   180.000000     0.000000     6
  NG2R62   CG2R64   CG3C41   CG3C41     9     0.000000    13.472480     2
  NG2R62   CG2R64   CG3C41   CG3C41     9   180.000000     0.753120     3
  NG2R62   CG2R64   CG3C41   CG3C41     9   180.000000     0.753120     4
  NG2R62   CG2R64   CG3C41     HGA1     9   180.000000     0.000000     3
  NG2R62   CG2R64   CG3C50    CG331     9   180.000000     4.351360     2
  NG2R62   CG2R64   CG3C50    CG331     9     0.000000     1.171520     6
  NG2R62   CG2R64   CG3C50   CG3C52     9     0.000000     1.297040     2
  NG2R62   CG2R64   CG3C50   CG3C52     9     0.000000     3.012480     6
  NG2R62   CG2R64   CG3C50   NG3C51     9   180.000000     0.962320     2
  NG2R62   CG2R64   CG3C50   NG3C51     9   180.000000     3.556400     6
  NG2R62   CG2R64   CG3C51   CG3C52     9     0.000000     0.209200     1
  NG2R62   CG2R64   CG3C51   CG3C52     9     0.000000     1.213360     2
  NG2R62   CG2R64   CG3C51   CG3C52     9     0.000000     1.171520     3
  NG2R62   CG2R64   CG3C51   CG3C52     9   180.000000     1.255200     4
  NG2R62   CG2R64   CG3C51    SG311     9   180.000000     4.602400     1
  NG2R62   CG2R64   CG3C51    SG311     9     0.000000     0.669440     2
  NG2R62   CG2R64   CG3C51    SG311     9     0.000000     0.502080     3
  NG2R62   CG2R64   CG3C51    SG311     9   180.000000     2.552240     6
  NG2R62   CG2R64   CG3C51     HGA1     9     0.000000     0.000000     1
  NG2R62   CG2R64   CG3C51     HGA1     9     0.000000     0.000000     2
  NG2R62   CG2R64   CG3C51     HGA1     9     0.000000     0.000000     3
  NG2R62   CG2R64   CG3C53   CG3C52     9     0.000000    11.882560     2
  NG2R62   CG2R64   CG3C53    NG3P2     9   180.000000     2.719600     1
  NG2R62   CG2R64   CG3C53    NG3P2     9   180.000000     7.112800     2
  NG2R62   CG2R64   CG3C53     HGA1     9   180.000000     0.000000     6
  NG2R62   CG2R64    NG2D1   CG2DC1     9   180.000000     2.886960     1
  NG2R62   CG2R64    NG2D1   CG2DC1     9     0.000000     1.799120     2
  NG2R62   CG2R64    NG2D1   CG2DC1     9   180.000000     1.338880     3
  NG2R62   CG2R64    NG2D1   CG2DC2     9   180.000000     2.886960     1
  NG2R62   CG2R64    NG2D1   CG2DC2     9     0.000000     1.799120     2
  NG2R62   CG2R64    NG2D1   CG2DC2     9   180.000000     1.338880     3
  NG2R62   CG2R64    NG2D1    CG331     9     0.000000     7.154640     1
  NG2R62   CG2R64    NG2D1    CG331     9     0.000000     1.589920     2
  NG2R62   CG2R64    NG2D1    CG331     9   180.000000     9.916080     3
  NG2R62   CG2R64    NG2D1     HGP1     9     0.000000     6.694400     1
  NG2R62   CG2R64    NG2D1     HGP1     9   180.000000    28.660400     2
  NG2R62   CG2R64    NG2P1   CG2R64     9   180.000000     7.531200     2
  NG2R62   CG2R64    NG2P1    CG334     9   180.000000    23.012000     2
  NG2R62   CG2R64    NG2P1     HGP2     9   180.000000     7.949600     2
  NG2R62   CG2R64   NG2R51   CG2R51     9   180.000000     4.184000     2
  NG2R62   CG2R64   NG2R51   CG2R53     9   180.000000     4.184000     2
  NG2R62   CG2R64   NG2R51   NG2R50     9     0.000000     0.836800     1
  NG2R62   CG2R64   NG2R51   NG2R50     9   180.000000     4.602400     2
  NG2R62   CG2R64   NG2R51   NG2R50     9     0.000000     2.510400     3
  NG2R62   CG2R64   NG2R52   CG2R53     9     0.000000     0.000000     2
  NG2R62   CG2R64   NG2R52   CG2RC0     9     0.000000     3.263520     2
  NG2R62   CG2R64   NG2R61   CG2D1O     9   180.000000    18.869840     2
  NG2R62   CG2R64   NG2R61   CG2D2O     9   180.000000    18.869840     2
  NG2R62   CG2R64   NG2R61    CG2N1     9   180.000000    10.208960     2
  NG2R62   CG2R64   NG2R61   CG2R61     9   180.000000     0.836800     2
  NG2R62   CG2R64   NG2R61   CG2R62     9   180.000000     2.510400     2
  NG2R62   CG2R64   NG2R61   CG2R63     9   180.000000     0.836800     2
  NG2R62   CG2R64   NG2R61   CG2R64     9   180.000000     0.836800     2
  NG2R62   CG2R64   NG2R61   CG2RC0     9   180.000000     0.836800     2
  NG2R62   CG2R64   NG2R61    CG311     9   180.000000    23.012000     2
  NG2R62   CG2R64   NG2R61    CG321     9   180.000000    23.012000     2
  NG2R62   CG2R64   NG2R61    CG331     9   180.000000    23.012000     2
  NG2R62   CG2R64   NG2R61    NG2S3     9   180.000000    12.928560     2
  NG2R62   CG2R64   NG2R61     HGP1     9   180.000000    15.062400     2
  NG2R62   CG2R64   NG2R61     HGP2     9   180.000000     4.351360     2
  NG2R62   CG2R64   NG2R61     CN7B     9   180.000000    46.024000     2
  NG2R62   CG2R64   NG2R62   CG2R61     9   180.000000     8.368000     2
  NG2R62   CG2R64   NG2R62   CG2R63     9   180.000000     7.531200     2
  NG2R62   CG2R64   NG2R62   CG2R64     9   180.000000     7.531200     2
  NG2R62   CG2R64   NG2R62   CG2R67     9   180.000000     8.368000     2
  NG2R62   CG2R64   NG2R62   CG2RC0     9   180.000000     8.368000     2
  NG2R62   CG2R64   NG2R62   NG2R62     9   180.000000     2.092000     2
  NG2R62   CG2R64   NG2R67   CG2R63     9   180.000000     0.836800     2
  NG2R62   CG2R64   NG2R67   CG2R67     9   180.000000     0.836800     2
  NG2R62   CG2R64   NG2RC0   CG2RC0     9     0.000000     0.209200     2
  NG2R62   CG2R64   NG2RC0   NG2R50     9   180.000000    10.543680     2
  NG2R62   CG2R64    NG2S0    CG2O1     9   180.000000    10.878400     2
  NG2R62   CG2R64    NG2S0    CG2O6     9   180.000000    10.878400     2
  NG2R62   CG2R64    NG2S0    CG331     9   180.000000    10.878400     2
  NG2R62   CG2R64    NG2S0    NG2S1     9   180.000000     3.765600     2
  NG2R62   CG2R64    NG2S0    NG2S1     9     0.000000     0.251040     4
  NG2R62   CG2R64    NG2S1    CG2O1     9   180.000000     2.092000     1
  NG2R62   CG2R64    NG2S1    CG2O1     9   180.000000     7.531200     2
  NG2R62   CG2R64    NG2S1    CG2O1     9   180.000000     1.673600     3
  NG2R62   CG2R64    NG2S1    CG2O6     9   180.000000    10.878400     2
  NG2R62   CG2R64    NG2S1     HGP1     9   180.000000     2.092000     2
  NG2R62   CG2R64    NG2S3    CG331     9   180.000000     5.857600     1
  NG2R62   CG2R64    NG2S3    CG331     9   180.000000     5.439200     2
  NG2R62   CG2R64    NG2S3     HGP1     9   180.000000    10.041600     2
  NG2R62   CG2R64    NG2S3     HGP4     9   180.000000     4.184000     2
  NG2R62   CG2R64    NG301   CG2R61     9   180.000000    14.392960     2
  NG2R62   CG2R64    NG301    CG311     9   180.000000     7.489360     2
  NG2R62   CG2R64    NG301    CG311     9   180.000000     5.983120     3
  NG2R62   CG2R64    NG301    CG311     9     0.000000     0.334720     6
  NG2R62   CG2R64    NG301    CG321     9     0.000000     1.757280     2
  NG2R62   CG2R64    NG301    CG331     9   180.000000     8.284320     2
  NG2R62   CG2R64    NG311   CG2R61     9   180.000000    14.392960     2
  NG2R62   CG2R64    NG311    CG321     9   180.000000    10.041600     1
  NG2R62   CG2R64    NG311    CG321     9   180.000000    12.552000     2
  NG2R62   CG2R64    NG311    CG331     9   180.000000     5.857600     1
  NG2R62   CG2R64    NG311    CG331     9   180.000000     5.439200     2
  NG2R62   CG2R64    NG311   HGPAM1     9   180.000000    10.041600     2
  NG2R62   CG2R64   NG3C51   CG2RC0     9   180.000000     8.702720     2
  NG2R62   CG2R64   NG3C51   CG3C50     9     0.000000     1.548080     1
  NG2R62   CG2R64   NG3C51   CG3C50     9   180.000000    15.020560     2
  NG2R62   CG2R64   NG3C51   CG3C52     9   180.000000    12.175440     1
  NG2R62   CG2R64   NG3C51   CG3C52     9   180.000000    10.669200     2
  NG2R62   CG2R64    NG3N1    NG3N1     9   180.000000    14.434800     1
  NG2R62   CG2R64    NG3N1    NG3N1     9   180.000000     5.313680     2
  NG2R62   CG2R64    NG3N1    NG3N1     9   180.000000     3.723760     3
  NG2R62   CG2R64    NG3N1     HGP1     9   180.000000     9.288480     2
  NG2R62   CG2R64    OG301    CG331     9   180.000000     5.941280     2
  NG2R62   CG2R64    OG301    CG331     9   180.000000     7.991440     4
  NG2R62   CG2R64    SG311    CG321     9   180.000000     8.870080     2
  NG2R62   CG2R64    SG311    CG321     9   180.000000     0.794960     4
  NG2R62   CG2R64    SG311    CG331     9   180.000000     8.870080     2
  NG2R62   CG2R64    SG311    CG331     9   180.000000     0.794960     4
  NG2R62   CG2R64    SG3O1    OG2P1     9   180.000000     0.000000     6
  NG2R62   CG2R64    SG3O2    OG2P1     9     0.000000     0.334720     6
  NG2R62   CG2R64    SG3O2    OG311     9   180.000000     0.794960     2
  NG2R62   CG2R64    SG3O2    OG311     9     0.000000     0.920480     4
  NG2R62   CG2R64        S      CT2     9   180.000000     8.870080     2
  NG2R62   CG2R64        S      CT2     9   180.000000     0.794960     4
  NG2R62   CG2R64      NH3      CT2     9   180.000000     5.857600     1
  NG2R62   CG2R64      NH3      CT2     9   180.000000     5.439200     2
  NG2R62   CG2R64      NH3       HC     9   180.000000    10.041600     2
  NG2R62   CG2R67   CG2RC0   CG2R61     9     0.000000     0.000000     2
  NG2R62   CG2R67   CG2RC0   OG2R50     9   180.000000    10.878400     2
  NG2R62   CG2RC0   CG2RC0   NG2R62     9     0.000000     0.083680     2
  NG2R62   CG2RC0   CG2RC0   SG2R50     9   180.000000     9.372160     2
  NG2R62   CG2RC0   CG3C52   CG3C52     9     0.000000     3.054320     2
  NG2R62   CG2RC0   CG3C52     HGA2     9   180.000000     0.000000     3
  NG2R62   CG2RC0   CG3C54    NG3P2     9   180.000000     2.468560     2
  NG2R62   CG2RC0   CG3C54    NG3P2     9     0.000000     1.631760     3
  NG2R62   CG2RC0   CG3C54     HGA2     9   180.000000     0.000000     3
  NG2R62   CG2RC0   NG2R50   CG2R53     9   180.000000     8.368000     2
  NG2R62   CG2RC0   NG2R50   OG2R50     9   180.000000     6.401520     2
  NG2R62   CG2RC0   NG2R51   CG2R51     9   180.000000     8.368000     2
  NG2R62   CG2RC0   NG2R51   CG2R53     9   180.000000     8.368000     2
  NG2R62   CG2RC0   NG2R51   CG2R64     9   180.000000     2.635920     2
  NG2R62   CG2RC0   NG2R51    CG311     9   180.000000    46.024000     2
  NG2R62   CG2RC0   NG2R51    CG331     9   180.000000    46.024000     2
  NG2R62   CG2RC0   NG2R51   CG3C51     9   180.000000    46.024000     2
  NG2R62   CG2RC0   NG2R51   CG3RC1     9   180.000000     5.020800     2
  NG2R62   CG2RC0   NG2R51   NG2R50     9     0.000000     1.924640     2
  NG2R62   CG2RC0   NG2R51     HGP1     9   180.000000     5.020800     2
  NG2R62   CG2RC0   NG2R51     CN7B     9   180.000000    46.024000     2
  NG2R62   CG2RC0   NG2R52   CG2R53     9   180.000000     8.368000     2
  NG2R62   CG2RC0   NG2R52    CG334     9   180.000000    12.552000     2
  NG2R62   CG2RC0   NG2R52     HGP2     9   180.000000     6.694400     2
  NG2R62   CG2RC0   NG2R52     CN7B     9   180.000000    46.024000     2
  NG2R62   CG2RC0   NG2R61   CG2R63     9     0.000000     0.292880     2
  NG2R62   CG2RC0   NG2R61   CG2R64     9     0.000000     0.000000     2
  NG2R62   CG2RC0   NG2R61   CG3C52     9   180.000000    21.756800     2
  NG2R62   CG2RC0   NG2RC0   CG2R51     9   180.000000    13.556160     2
  NG2R62   CG2RC0   NG2RC0   CG2R63     9     0.000000     0.000000     2
  NG2R62   CG2RC0   NG3C51   CG2R61     9   180.000000     5.983120     2
  NG2R62   CG2RC0   NG3C51   CG3C52     9     0.000000     0.000000     2
  NG2R62   CG2RC0   OG2R50   CG2R51     9   180.000000    21.840480     2
  NG2R62   CG2RC0   OG3C51   CG3C51     9   180.000000    87.905840     2
  NG2R62   CG2RC0   SG2R50   CG2R51     9   180.000000    19.999520     2
  NG2R62   CG2RC0    SG311   CG3C52     9     0.000000     0.000000     2
  NG2R62   CG2RC0    SG311   CG3C52     9     0.000000     0.376560     4
  NG2R67   CG2R61   CG2R61    NG2S3     9   180.000000    19.288240     2
  NG2R67   CG2R62   CG2R62    NG2S3     9   180.000000    35.061920     2
  NG2R67   CG2R62   CG2R62    HGR62     9   180.000000    14.225600     2
  NG2R67   CG2R62   CG2R62    HGR63     9   180.000000    14.225600     2
  NG2R67   CG2R62    CG331     HGA3     9   180.000000     0.000000     6
  NG2R67   CG2R62    OG311     HGP1     9   180.000000     7.614880     1
  NG2R67   CG2R62    OG311     HGP1     9   180.000000     7.447520     2
  NG2R67   CG2R63   NG2R61   CG2R61     9   180.000000     6.276000     2
  NG2R67   CG2R63   NG2R61   CG2R62     9   180.000000     6.276000     2
  NG2R67   CG2R63   NG2R61   CG2R63     9   180.000000    12.552000     2
  NG2R67   CG2R63   NG2R61     HGP1     9   180.000000    13.807200     2
  NG2R67   CG2R64    NG2D1     HGP1     9     0.000000     6.694400     1
  NG2R67   CG2R64    NG2D1     HGP1     9   180.000000    28.660400     2
  NG2R67   CG2R64   NG2R62   CG2R61     9   180.000000     8.368000     2
  NG2R67   CG2R64   NG2R62   CG2R62     9   180.000000    16.736000     2
  NG2R67   CG2R67   NG2R60   CG2R61     9   180.000000    25.773440     2
  NG2R67   CG2RC0   NG2R51   CG2R53     9   180.000000     0.878640     2
  NG2R67   CG2RC0   NG2R51     HGP1     9   180.000000     1.631760     2
   NG2S3   CG2R61   CG2R61    NG2S3     9   180.000000    12.970400     2
   NG2S3   CG2R61   CG2R61   NG3C51     9   180.000000    22.133360     2
   NG2S3   CG2R61   CG2R61    OG311     9   180.000000    10.041600     2
   NG2S3   CG2R61   CG2R61    SG311     9   180.000000     7.991440     2
   NG2S3   CG2R61   CG2R61    HGR61     9   180.000000    10.041600     2
   NG2S3   CG2R61   CG2R61    HGR62     9   180.000000    10.041600     2
   NG2S3   CG2R61   CG2R62   CG2R62     9   180.000000    20.920000     2
   NG2S3   CG2R61   CG2R62   NG2R61     9   180.000000     0.167360     2
   NG2S3   CG2R61   CG2R64    NG2D1     9   180.000000     5.899440     2
   NG2S3   CG2R61   CG2R64   NG2R51     9   180.000000    18.828000     2
   NG2S3   CG2R61   CG2R64   NG2R60     9   180.000000    15.062400     2
   NG2S3   CG2R61   CG2R64   NG2R61     9     0.000000     0.000000     2
   NG2S3   CG2R61   CG2R64   NG2R62     9   180.000000    13.012240     2
   NG2S3   CG2R61   CG2R64    NG2S3     9   180.000000    14.225600     2
   NG2S3   CG2R61   CG2R66   CG2R61     9   180.000000    20.920000     2
   NG2S3   CG2R61   CG2R66   CG2R64     9   180.000000    20.920000     2
   NG2S3   CG2R61   CG2R66     FGR1     9   180.000000    10.041600     2
   NG2S3   CG2R61   CG2RC0   CG2R51     9   180.000000     4.846327     2
   NG2S3   CG2R61   CG2RC0   CG2RC0     9   180.000000     6.271816     2
   NG2S3   CG2R61   CG2RC0   CG3C51     9   180.000000     9.288480     2
   NG2S3   CG2R61   CG2RC0   NG2R50     9   180.000000     4.518720     2
   NG2S3   CG2R61   CG2RC0   NG2R51     9   180.000000     0.292880     2
   NG2S3   CG2R61   CG2RC0   NG2R52     9   180.000000     0.167360     2
   NG2S3   CG2R61   CG2RC0   NG3C51     9     0.000000     0.000000     2
   NG2S3   CG2R62   CG2R62    HGR62     9   180.000000     5.439200     2
   NG2S3   CG2R62   CG2R62    HGR63     9     0.000000     1.506240     2
   NG2S3   CG2R62   CG2R63   NG2R61     9     0.000000     0.041840     2
   NG2S3   CG2R62   CG2R63    OG2D4     9   180.000000     4.937120     2
   NG2S3   CG2R62   CG2RC0   CG2RC0     9   180.000000     6.276000     2
   NG2S3   CG2R62   CG2RC0   CG3C52     9   180.000000    15.187920     2
   NG2S3   CG2R62   NG2R60   CG2R62     9   180.000000    19.413760     2
   NG2S3   CG2R62   NG2R61   CG2R62     9     0.000000     0.000000     2
   NG2S3   CG2R62   NG2R61     HGP2     9   180.000000     9.623200     2
   NG2S3   CG2R64   CG2R64   NG3C51     9   180.000000    25.773440     2
   NG2S3   CG2R64   CG2R66   CG2R61     9   180.000000     8.368000     2
   NG2S3   CG2R64   CG2R66     FGR1     9   180.000000    14.351120     2
   NG2S3   CG2R64   CG2R67   CG2R61     9   180.000000    10.208960     2
   NG2S3   CG2R64   CG2R67   CG2R67     9   180.000000    13.723520     2
   NG2S3   CG2R64   CG2RC0   CG2R51     9   180.000000     2.803280     2
   NG2S3   CG2R64   CG2RC0   CG2RC0     9   180.000000    16.736000     2
   NG2S3   CG2R64   CG2RC0   CG3C52     9     0.000000     4.769760     2
   NG2S3   CG2R64   CG2RC0   NG2R50     9   180.000000     0.000000     2
   NG2S3   CG2R64   NG2R60   CG2R61     9   180.000000    16.736000     2
   NG2S3   CG2R64   NG2R60   CG2R62     9   180.000000    16.736000     2
   NG2S3   CG2R64   NG2R60   CG2R64     9   180.000000    16.736000     2
   NG2S3   CG2R64   NG2R60   CG2RC0     9   180.000000    16.736000     2
   NG2S3   CG2R64   NG2R61    CG2N1     9   180.000000     6.192320     2
   NG2S3   CG2R64   NG2R61   CG2R62     9   180.000000    16.736000     2
   NG2S3   CG2R64   NG2R61   CG2R63     9   180.000000    16.736000     2
   NG2S3   CG2R64   NG2R61   CG2R64     9   180.000000    16.736000     2
   NG2S3   CG2R64   NG2R61   CG2RC0     9   180.000000    16.736000     2
   NG2S3   CG2R64   NG2R61    CG331     9   180.000000    10.460000     2
   NG2S3   CG2R64   NG2R61     HGP1     9   180.000000     0.000000     2
   NG2S3   CG2R64   NG2R62   CG2R61     9   180.000000     8.368000     2
   NG2S3   CG2R64   NG2R62   CG2R62     9   180.000000     4.184000     2
   NG2S3   CG2R64   NG2R62   CG2R63     9   180.000000     8.368000     2
   NG2S3   CG2R64   NG2R62   CG2R64     9   180.000000     7.531200     2
   NG2S3   CG2R64   NG2R62   CG2RC0     9   180.000000    16.736000     2
   NG2S3   CG2R64   NG2R62   NG2R62     9   180.000000    14.100080     2
   NG2S3   CG2R64   OG3R60   CG2R63     9     0.000000     0.083680     2
   NG2S3    CG321    CG321     HGA2     9     0.000000     0.815880     3
   NG2S3    CG321    CG331     HGA3     9     0.000000     0.815880     3
   NG2S3    CG321    NG311   CG2R53     9   180.000000     1.882800     1
   NG2S3    CG321    NG311   CG2R53     9   180.000000     1.046000     3
   NG2S3    CG321    NG311   HGPAM1     9   180.000000     1.422560     3
   NG2S3   CG3C51   CG3C51   OG3C51     9     0.000000     0.836800     3
   NG2S3   CG3C51   CG3C51     HGA1     9     0.000000     0.815880     3
   NG2S3   CG3C51   CG3C52   CG3C51     9   180.000000     5.648400     1
   NG2S3   CG3C51   CG3C52   CG3C51     9     0.000000     4.184000     2
   NG2S3   CG3C51   CG3C52   CG3C51     9   180.000000     0.836800     3
   NG2S3   CG3C51   CG3C52   CG3C52     9   180.000000     5.648400     1
   NG2S3   CG3C51   CG3C52   CG3C52     9     0.000000     4.184000     2
   NG2S3   CG3C51   CG3C52   CG3C52     9   180.000000     0.836800     3
   NG2S3   CG3C51   CG3C52   OG3C51     9     0.000000     0.836800     3
   NG2S3   CG3C51   CG3C52     HGA2     9     0.000000     0.815880     3
   SG302   CG2R61   CG2R61    HGR62     9   180.000000    10.041600     2
   SG302   CG2R62   CG2R62    HGR63     9   180.000000     4.267680     2
   SG302    CG323    CG331     HGA3     9     0.000000     0.627600     3
   CLGR1   CG2R61   CG2R61    CLGR1     9   180.000000    10.041600     2
   CLGR1   CG2R61   CG2R61    HGR62     9   180.000000    12.552000     2
   CLGR1   CG2R61   CG2R61      CT1     9   180.000000    14.936880     2
   CLGR1   CG2R61   CG2R61     CTD1     9   180.000000    14.936880     2
   CLGR1   CG2R61   CG2RC0   CG2RC0     9   180.000000    12.767058     2
   CLGR1   CG2R61   CG2RC0   NG2R51     9   180.000000     7.647097     2
   BRGR1   CG2R61   CG2R61    BRGR1     9   180.000000    10.041600     2
   BRGR1   CG2R61   CG2R61    HGR62     9   180.000000    12.552000     2
   BRGR1   CG2R61   NG2R60   CG2R61     9   180.000000    12.552000     2
    IGR1   CG2R61   CG2R61     IGR1     9   180.000000    10.041600     2
    IGR1   CG2R61   CG2R61    HGR62     9   180.000000    12.552000     2
   BG201   CG2R61   CG2R61    HGR61     9   180.000000    10.041600     2
   BG201    CG321    CG331     HGA3     9   180.000000     0.579902     1
   HGR61   CG2R61   CG2R61    HGR61     9   180.000000    10.041600     2
   HGR61   CG2R61   CG2R61    HGR62     9   180.000000    10.041600     2
   HGR61   CG2R61   CG2R61    OC301     9   180.000000    10.041600     2
   HGR61   CG2R61   CG2R62   CG2R62     9   180.000000    12.970400     2
   HGR61   CG2R61   CG2R62   CG2R63     9   180.000000     4.184000     2
   HGR61   CG2R61   CG2R62   CG2R64     9   180.000000     4.184000     2
   HGR61   CG2R61   CG2R62   CG2RC0     9   180.000000    12.970400     2
   HGR61   CG2R61   CG2R62    NG2O1     9   180.000000     4.184000     2
   HGR61   CG2R61   CG2R62   NG2R60     9   180.000000    11.715200     2
   HGR61   CG2R61   CG2R62   NG2R61     9   180.000000     1.673600     2
   HGR61   CG2R61   CG2R62   NG2R62     9   180.000000    11.715200     2
   HGR61   CG2R61   CG2R62   NG2RC0     9   180.000000     3.347200     2
   HGR61   CG2R61   CG2R62   OG3R60     9   180.000000    10.041600     2
   HGR61   CG2R61   CG2R62    SG311     9   180.000000    10.041600     2
   HGR61   CG2R61   CG2R64    NG2D1     9   180.000000     4.184000     2
   HGR61   CG2R61   CG2R64    NG2P1     9   180.000000    10.878400     2
   HGR61   CG2R61   CG2R64   NG2R51     9   180.000000     6.276000     2
   HGR61   CG2R61   CG2R64   NG2R53     9   180.000000    10.041600     2
   HGR61   CG2R61   CG2R64   NG2R60     9   180.000000    11.715200     2
   HGR61   CG2R61   CG2R64   NG2R61     9   180.000000    16.192080     2
   HGR61   CG2R61   CG2R64   NG2R62     9   180.000000    14.225600     2
   HGR61   CG2R61   CG2R64   NG2R67     9   180.000000     1.673600     2
   HGR61   CG2R61   CG2R64    NG2S0     9   180.000000     5.481040     2
   HGR61   CG2R61   CG2R64    NG2S1     9   180.000000    10.041600     2
   HGR61   CG2R61   CG2R64    NG2S3     9   180.000000     8.368000     2
   HGR61   CG2R61   CG2R64    NG301     9   180.000000    10.041600     2
   HGR61   CG2R61   CG2R64    NG311     9   180.000000    10.041600     2
   HGR61   CG2R61   CG2R67   CG2R61     9   180.000000    17.572800     2
   HGR61   CG2R61   CG2R67   CG2R62     9   180.000000    17.572800     2
   HGR61   CG2R61   CG2R67   CG2R66     9   180.000000    17.572800     2
   HGR61   CG2R61   CG2R67   CG2R67     9   180.000000    17.572800     2
   HGR61   CG2R61   CG2R67   CG2RC0     9   180.000000    12.552000     2
   HGR61   CG2R61   CG2R67   NG2R60     9   180.000000    11.715200     2
   HGR61   CG2R61   CG2R67   NG2R67     9   180.000000    11.715200     2
   HGR61   CG2R61   CG2RC0   CG251O     9   180.000000    12.552000     2
   HGR61   CG2R61   CG2RC0   CG252O     9   180.000000    12.552000     2
   HGR61   CG2R61   CG2RC0   CG25C1     9   180.000000    12.552000     2
   HGR61   CG2R61   CG2RC0   CG25C2     9   180.000000    12.552000     2
   HGR61   CG2R61   CG2RC0   CG2R51     9   180.000000    16.736000     2
   HGR61   CG2R61   CG2RC0   CG2R52     9   180.000000     0.000000     2
   HGR61   CG2R61   CG2RC0   CG2R53     9   180.000000     0.000000     2
   HGR61   CG2R61   CG2RC0   CG2R57     9   180.000000    16.736000     2
   HGR61   CG2R61   CG2RC0   CG2R67     9   180.000000    12.552000     2
   HGR61   CG2R61   CG2RC0   CG2RC0     9   180.000000    12.552000     2
   HGR61   CG2R61   CG2RC0   CG3C31     9   180.000000     6.443360     2
   HGR61   CG2R61   CG2RC0   CG3C41     9     0.000000     2.384880     2
   HGR61   CG2R61   CG2RC0   CG3C50     9   180.000000     0.000000     2
   HGR61   CG2R61   CG2RC0   CG3C51     9   180.000000     0.000000     2
   HGR61   CG2R61   CG2RC0   CG3C52     9   180.000000     0.000000     2
   HGR61   CG2R61   CG2RC0   CG3C53     9   180.000000     8.828240     2
   HGR61   CG2R61   CG2RC0   CG3RC1     9   180.000000     8.660880     1
   HGR61   CG2R61   CG2RC0   CG3RC1     9   180.000000     8.116960     2
   HGR61   CG2R61   CG2RC0   CG3RC1     9     0.000000     4.058480     3
   HGR61   CG2R61   CG2RC0   NG2R50     9   180.000000     3.347200     2
   HGR61   CG2R61   CG2RC0   NG2R51     9   180.000000    12.552000     2
   HGR61   CG2R61   CG2RC0   NG2R52     9     0.000000     1.673600     2
   HGR61   CG2R61   CG2RC0   NG2R53     9   180.000000     0.000000     2
   HGR61   CG2R61   CG2RC0   NG2R57     9   180.000000    12.552000     2
   HGR61   CG2R61   CG2RC0   NG2RC0     9   180.000000     0.000000     2
   HGR61   CG2R61   CG2RC0    NG2S0     9   180.000000     6.694400     2
   HGR61   CG2R61   CG2RC0   NG3C51     9   180.000000     0.000000     2
   HGR61   CG2R61   CG2RC0   OG2R50     9   180.000000     0.000000     2
   HGR61   CG2R61   CG2RC0   OG3C51     9   180.000000    10.041600     2
   HGR61   CG2R61   CG2RC0   SG2R50     9   180.000000     0.000000     2
   HGR61   CG2R61   CG2RC0    SG311     9   180.000000     3.096160     2
   HGR61   CG2R61   CG2RC0    SG3O2     9   180.000000     2.719600     2
   HGR61   CG2R61   CG2RC0    BG201     9   180.000000     0.000000     2
   HGR62   CG2R61   CG2R61    HGR62     9   180.000000    10.041600     2
   HGR62   CG2R61   CG2R62   CG2R62     9   180.000000    12.970400     2
   HGR62   CG2R61   CG2R62   CG2R63     9   180.000000     4.184000     2
   HGR62   CG2R61   CG2R62   NG2R61     9   180.000000     1.673600     2
   HGR62   CG2R61   CG2R62   NG2R62     9   180.000000    11.715200     2
   HGR62   CG2R61   CG2R63   CG2R61     9   180.000000     7.782240     2
   HGR62   CG2R61   CG2R63   NG2R61     9   180.000000     4.184000     2
   HGR62   CG2R61   CG2R63   NG2R67     9   180.000000     4.184000     2
   HGR62   CG2R61   CG2R63    SG2D1     9   180.000000    10.041600     2
   HGR62   CG2R61   CG2R64    NG2D1     9   180.000000     4.184000     2
   HGR62   CG2R61   CG2R64   NG2R60     9   180.000000    11.715200     2
   HGR62   CG2R61   CG2R64   NG2R62     9   180.000000    14.225600     2
   HGR62   CG2R61   CG2R64    NG2S3     9   180.000000     8.368000     2
   HGR62   CG2R61   CG2R64   NG3C51     9   180.000000    10.041600     2
   HGR62   CG2R61   CG2R66   CG2R61     9   180.000000    17.572800     2
   HGR62   CG2R61   CG2R66   CG2R62     9   180.000000    17.572800     2
   HGR62   CG2R61   CG2R66   CG2R63     9   180.000000    17.572800     2
   HGR62   CG2R61   CG2R66   CG2R64     9   180.000000    17.572800     2
   HGR62   CG2R61   CG2R66   CG2R66     9   180.000000    17.572800     2
   HGR62   CG2R61   CG2R66   CG2R67     9   180.000000    17.572800     2
   HGR62   CG2R61   CG2R66   CG2RC0     9   180.000000    17.572800     2
   HGR62   CG2R61   CG2R66   NG2R62     9   180.000000    25.104000     2
   HGR62   CG2R61   CG2R66     FGR1     9   180.000000    10.041600     2
   HGR62   CG2R61   CG2R67   CG2R61     9   180.000000    17.572800     2
   HGR62   CG2R61   CG2R67   CG2R67     9   180.000000    17.572800     2
   HGR62   CG2R61   CG2R67   CG2RC0     9   180.000000    12.552000     2
   HGR62   CG2R61   CG2R67   NG2R60     9   180.000000    11.715200     2
   HGR62   CG2R61   CG2R67   NG2R67     9   180.000000    11.715200     2
   HGR62   CG2R61   CG2RC0   CG25C1     9   180.000000    10.041600     2
   HGR62   CG2R61   CG2RC0   CG25C2     9   180.000000    10.041600     2
   HGR62   CG2R61   CG2RC0   CG2R51     9   180.000000    16.736000     2
   HGR62   CG2R61   CG2RC0   CG2R52     9   180.000000     0.000000     2
   HGR62   CG2R61   CG2RC0   CG2RC0     9   180.000000    17.572800     2
   HGR62   CG2R61   CG2RC0   CG3C52     9   180.000000     0.000000     2
   HGR62   CG2R61   CG2RC0   NG2R50     9   180.000000     4.184000     2
   HGR62   CG2R61   CG2RC0   NG2R51     9   180.000000     0.000000     2
   HGR62   CG2R61   CG2RC0   NG2RC0     9   180.000000     0.000000     2
   HGR62   CG2R61   CG2RC0   OG2R50     9   180.000000     0.000000     2
   HGR62   CG2R61   CG2RC0   SG2R50     9   180.000000     0.000000     2
   HGR62   CG2R61    NG2P1   CG2R64     9   180.000000    16.736000     2
   HGR62   CG2R61    NG2P1    CG334     9   180.000000    11.296800     2
   HGR62   CG2R61    NG2P1     HGP2     9   180.000000     0.000000     2
   HGR62   CG2R61    NG2P1     CN7B     9   180.000000    11.296800     2
   HGR62   CG2R61   NG2R52   CG2RC0     9     0.000000     0.334720     2
   HGR62   CG2R61   NG2R52   CG3C54     9   180.000000     8.744560     2
   HGR62   CG2R61   NG2R60   CG2R61     9   180.000000    24.267200     2
   HGR62   CG2R61   NG2R60   CG2R62     9   180.000000    24.267200     2
   HGR62   CG2R61   NG2R60   CG2R64     9   180.000000    24.267200     2
   HGR62   CG2R61   NG2R60   CG2R67     9   180.000000    21.966000     2
   HGR62   CG2R61   NG2R61    CG2O1     9   180.000000     2.970640     2
   HGR62   CG2R61   NG2R61   CG2R61     9   180.000000    19.246400     2
   HGR62   CG2R61   NG2R61   CG2R63     9   180.000000    19.246400     2
   HGR62   CG2R61   NG2R61   CG2R64     9   180.000000    19.246400     2
   HGR62   CG2R61   NG2R61   CG2RC0     9   180.000000     8.116960     2
   HGR62   CG2R61   NG2R61    CG324     9   180.000000    10.711040     2
   HGR62   CG2R61   NG2R61    CG331     9   180.000000     1.255200     2
   HGR62   CG2R61   NG2R61    CG334     9   180.000000     9.414000     2
   HGR62   CG2R61   NG2R61     HGP1     9   180.000000     5.020800     2
   HGR62   CG2R61   NG2R61     CN7B     9   180.000000     1.255200     2
   HGR62   CG2R61   NG2R62   CG2R64     9   180.000000    30.543200     2
   HGR62   CG2R61   NG2R62   NG2R61     9   180.000000    30.292160     2
   HGR62   CG2R61   NG2R62   NG2R62     9   180.000000    11.715200     2
   HGR62   CG2R61   NG2R62   NG2RC0     9   180.000000    28.283840     2
   HGR62   CG2R61   NG2R67   CG2R64     9     0.000000     3.598240     2
   HGR62   CG2R61   NG2R67   CG2R67     9     0.000000     0.502080     2
   HGR62   CG2R61   NG2RC0   CG2R51     9   180.000000     0.000000     2
   HGR62   CG2R61   NG2RC0   CG2R53     9   180.000000     0.000000     2
   HGR62   CG2R61   NG2RC0   CG2R57     9   180.000000     0.000000     2
   HGR62   CG2R61   NG2RC0   CG2R67     9   180.000000     6.610720     2
   HGR62   CG2R61   NG2RC0   CG2RC0     9   180.000000     7.949600     2
   HGR62   CG2R61   NG2RC0   NG2R50     9   180.000000     8.451680     2
   HGR62   CG2R61    SG311   CG2R61     9   180.000000    19.162720     2
   HGR62   CG2R62   CG2R62    HGR62     9   180.000000    12.552000     2
   HGR62   CG2R62   CG2R62     CN7B     9   180.000000    16.736000     2
   HGR62   CG2R62   CG2R63   CG2R62     9   180.000000     2.092000     2
   HGR62   CG2R62   CG2R63   NG2R61     9   180.000000     4.184000     2
   HGR62   CG2R62   CG2R63   NG2R62     9   180.000000     4.184000     2
   HGR62   CG2R62   CG2R63   NG2R67     9   180.000000     3.347200     2
   HGR62   CG2R62   CG2R63    OG2D4     9   180.000000    25.104000     2
   HGR62   CG2R62   CG2R63   OG3R60     9   180.000000    10.041600     2
   HGR62   CG2R62   CG2R63    SG2D1     9   180.000000    10.041600     2
   HGR62   CG2R62   CG2R64    NG2D1     9   180.000000     4.184000     2
   HGR62   CG2R62   CG2R64    NG2P1     9   180.000000     4.184000     2
   HGR62   CG2R62   CG2R64   NG2R61     9   180.000000    14.225600     2
   HGR62   CG2R62   CG2R64   NG2R62     9   180.000000    14.225600     2
   HGR62   CG2R62   CG2R64    NG2S1     9   180.000000    10.041600     2
   HGR62   CG2R62   CG2R64    NG2S3     9   180.000000     8.368000     2
   HGR62   CG2R62   CG2R64    NG301     9   180.000000     0.000000     2
   HGR62   CG2R62   CG2R64    NG311     9   180.000000     0.000000     2
   HGR62   CG2R62   CG2R66   CG2R63     9   180.000000    17.572800     2
   HGR62   CG2R62   CG2R66     FGR1     9   180.000000    10.041600     2
   HGR62   CG2R62   CG2R67   CG2R62     9   180.000000    17.572800     2
   HGR62   CG2R62   CG2R67   CG2R67     9   180.000000    17.572800     2
   HGR62   CG2R62   CG2RC0   CG2R51     9   180.000000    16.736000     2
   HGR62   CG2R62   CG2RC0   CG2RC0     9   180.000000    17.572800     2
   HGR62   CG2R62   CG2RC0   CG3C52     9   180.000000     0.000000     2
   HGR62   CG2R62   CG2RC0   NG2RC0     9   180.000000     0.000000     2
   HGR62   CG2R62   CG2RC0   OG2R50     9   180.000000     0.000000     2
   HGR62   CG2R62   NG2R60   CG2R62     9   180.000000    24.267200     2
   HGR62   CG2R62   NG2R60   CG2R64     9   180.000000    24.267200     2
   HGR62   CG2R62   NG2R61   CG2R61     9   180.000000    23.430400     2
   HGR62   CG2R62   NG2R61   CG2R62     9   180.000000    23.430400     2
   HGR62   CG2R62   NG2R61   CG2R63     9   180.000000    19.246400     2
   HGR62   CG2R62   NG2R61   CG2R64     9   180.000000    20.083200     2
   HGR62   CG2R62   NG2R61    CG311     9   180.000000     1.255200     2
   HGR62   CG2R62   NG2R61    CG312     9     0.000000     4.769760     2
   HGR62   CG2R62   NG2R61    CG331     9   180.000000     1.255200     2
   HGR62   CG2R62   NG2R61   CG3C51     9   180.000000     1.255200     2
   HGR62   CG2R62   NG2R61   CG3RC1     9   180.000000     4.184000     2
   HGR62   CG2R62   NG2R61    OG311     9   180.000000    14.267440     2
   HGR62   CG2R62   NG2R61     HGP1     9   180.000000     5.020800     2
   HGR62   CG2R62   NG2R61     CN7B     9   180.000000     1.255200     2
   HGR62   CG2R62   NG2R62   CG2R63     9   180.000000    30.543200     2
   HGR62   CG2R62   NG2R62   CG2R64     9   180.000000    30.543200     2
   HGR62   CG2R62   NG2R62   NG2R62     9   180.000000    11.715200     2
   HGR62   CG2R62   NG2R67   CG2R62     9   180.000000    11.715200     2
   HGR62   CG2R62   NG2R67   CG2R63     9   180.000000    19.246400     2
   HGR62   CG2R62   NG2R67   CG2R67     9   180.000000     4.184000     2
   HGR62   CG2R62   OG3R60   CG2R63     9   180.000000    12.091760     2
   HGR62   CG2R64    NG2P1   CG2R64     9   180.000000    20.501600     2
   HGR62   CG2R64    NG2P1    CG334     9   180.000000     0.000000     2
   HGR62   CG2R64    NG2P1     HGP2     9   180.000000     2.301200     2
   HGR62   CG2R64   NG2R61   CG2D1O     9   180.000000     4.393200     2
   HGR62   CG2R64   NG2R61   CG2D2O     9   180.000000     4.393200     2
   HGR62   CG2R64   NG2R61   CG2R62     9   180.000000    23.012000     2
   HGR62   CG2R64   NG2R61   CG2R63     9   180.000000    23.012000     2
   HGR62   CG2R64   NG2R61   CG2R64     9   180.000000    19.246400     2
   HGR62   CG2R64   NG2R61    CG311     9   180.000000     0.000000     2
   HGR62   CG2R64   NG2R61    CG321     9   180.000000     0.000000     2
   HGR62   CG2R64   NG2R61    CG331     9   180.000000     0.000000     2
   HGR62   CG2R64   NG2R61     HGP1     9   180.000000     2.092000     2
   HGR62   CG2R64   NG2R62   CG2R61     9   180.000000    30.543200     2
   HGR62   CG2R64   NG2R62   CG2R62     9   180.000000    30.543200     2
   HGR62   CG2R64   NG2R62   CG2R63     9   180.000000    35.564000     2
   HGR62   CG2R64   NG2R62   CG2R64     9   180.000000    35.564000     2
   HGR62   CG2R64   NG2R62   CG2R67     9   180.000000    30.543200     2
   HGR62   CG2R64   NG2R62   CG2RC0     9   180.000000    35.564000     2
   HGR62   CG2R64   NG2R62   NG2R62     9   180.000000    25.104000     2
   HGR62   CG2R64   NG2R67   CG2R63     9   180.000000    23.012000     2
   HGR62   CG2R64   NG2R67   CG2R67     9   180.000000     4.184000     2
   HGR63   CG2R62   CG2R62    HGR63     9   180.000000     8.368000     2
   HGR63   CG2R62   CG2R67   CG2R62     9   180.000000    17.572800     2
   HGR63   CG2R62   CG2R67   CG2R67     9   180.000000    17.572800     2
   HGR63   CG2R62   CG2R67   CG2RC0     9   180.000000    12.552000     2
   HGR63   CG2R62   CG2R67   NG2R61     9   180.000000    19.999520     2
   HGR63   CG2R62   CG2R67   NG2RC0     9   180.000000     4.769760     2
   HGR63   CG2R62   CG2RC0   CG2R53     9   180.000000     0.000000     2
   HGR63   CG2R62   CG2RC0   CG2RC0     9   180.000000    17.572800     2
   HGR63   CG2R62   CG2RC0   CG3C52     9   180.000000     0.000000     2
   HGR63   CG2R62   CG2RC0   NG2R52     9   180.000000     9.957920     2
   HGR63   CG2R62   CG2RC0   NG2RC0     9   180.000000     0.000000     2
   HGR63   CG2R62   CG2RC0   NG3C51     9   180.000000     0.000000     2
   HGR63   CG2R62    NG2O1   CG2R62     9   180.000000    20.668960     2
   HGR63   CG2R62   NG2R61   CG2R51     9   180.000000    11.547840     2
   HGR63   CG2R62   NG2R61   CG2R62     9   180.000000    29.288000     2
   HGR63   CG2R62   NG2R61   CG2R67     9   180.000000    29.288000     2
   HGR63   CG2R62   NG2R61   CG2RC0     9   180.000000    29.288000     2
   HGR63   CG2R62   NG2R61    CG314     9   180.000000     4.184000     2
   HGR63   CG2R62   NG2R61    CG324     9   180.000000     4.184000     2
   HGR63   CG2R62   NG2R61    CG334     9   180.000000    14.853200     2
   HGR63   CG2R62   NG2R61   CG3C53     9   180.000000     4.184000     2
   HGR63   CG2R62   NG2R61    NG2D1     9     0.000000     0.000000     2
   HGR63   CG2R62   NG2R61    OG301     9   180.000000    16.192080     2
   HGR63   CG2R62   NG2R61   OG3R60     9   180.000000    13.012240     2
   HGR63   CG2R62   NG2R61     FGP1     9   180.000000    27.447040     2
   HGR63   CG2R62   NG2R61     HGP2     9   180.000000    12.552000     2
   HGR63   CG2R62   NG2R62   CG2R62     9   180.000000    30.961600     2
   HGR63   CG2R62   NG2R67   CG2R62     9   180.000000    11.715200     2
   HGR63   CG2R62   NG2R67   CG2R67     9   180.000000     4.184000     2
   HGR63   CG2R62   NG2RC0   CG2R51     9   180.000000     0.000000     2
   HGR63   CG2R62   NG2RC0   CG2RC0     9   180.000000     7.949600     2
   OG2D4   CG2R63   CG2R63    SG2D1     9   180.000000    17.614640     2
   OG2D4   CG2R63   CG2R64   NG2R60     9   180.000000     3.514560     2
   OG2D4   CG2R63   CG2R64    NG2S3     9   180.000000    13.807200     2
   OG2D4   CG2R63   CG2R64    NG311     9   180.000000     4.895280     2
   OG2D4   CG2R63   CG2R64   NG3C51     9   180.000000     4.895280     2
   OG2D4   CG2R63   CG2R66   CG2R62     9     0.000000     1.757280     2
   OG2D4   CG2R63   CG2R66     FGR1     9   180.000000    11.045760     2
   OG2D4   CG2R63   CG2RC0   CG2R51     9   180.000000    16.736000     2
   OG2D4   CG2R63   CG2RC0   CG2R52     9   180.000000    16.736000     2
   OG2D4   CG2R63   CG2RC0   CG2RC0     9   180.000000    58.576000     2
   OG2D4   CG2R63   CG2RC0   CG3C54     9     0.000000     0.251040     2
   OG2D4   CG2R63   CG2RC0   NG2R50     9   180.000000     0.000000     2
   OG2D4   CG2R63   CG2RC0   NG2R51     9     0.000000     0.711280     2
   OG2D4   CG2R63   CG2RC0   NG2R52     9   180.000000     0.000000     2
   OG2D4   CG2R63   CG2RC0   SG2R50     9     0.000000     0.627600     2
   OG2D4   CG2R63    NG2P1   CG2R64     9   180.000000    10.878400     2
   OG2D4   CG2R63    NG2P1    CG334     9   180.000000     7.112800     2
   OG2D4   CG2R63    NG2P1     HGP2     9   180.000000     6.694400     2
   OG2D4   CG2R63   NG2R52   CG2RC0     9     0.000000     1.464400     2
   OG2D4   CG2R63   NG2R52   CG3C54     9   180.000000    15.899200     2
   OG2D4   CG2R63   NG2R61   CG2D1O     9     0.000000     0.000000     2
   OG2D4   CG2R63   NG2R61   CG2D2O     9     0.000000     0.000000     2
   OG2D4   CG2R63   NG2R61    CG2N1     9   180.000000     2.343040     2
   OG2D4   CG2R63   NG2R61   CG2R61     9   180.000000     6.694400     2
   OG2D4   CG2R63   NG2R61   CG2R62     9   180.000000     6.694400     2
   OG2D4   CG2R63   NG2R61   CG2R63     9   180.000000     3.765600     2
   OG2D4   CG2R63   NG2R61   CG2R64     9   180.000000    58.576000     2
   OG2D4   CG2R63   NG2R61   CG2R66     9   180.000000     6.694400     2
   OG2D4   CG2R63   NG2R61   CG2RC0     9     0.000000     6.568880     2
   OG2D4   CG2R63   NG2R61    CG301     9   180.000000     0.000000     2
   OG2D4   CG2R63   NG2R61    CG311     9   180.000000     0.000000     2
   OG2D4   CG2R63   NG2R61    CG312     9   180.000000    11.338640     2
   OG2D4   CG2R63   NG2R61    CG321     9   180.000000     0.000000     2
   OG2D4   CG2R63   NG2R61    CG324     9   180.000000    15.187920     2
   OG2D4   CG2R63   NG2R61    CG331     9   180.000000    46.024000     2
   OG2D4   CG2R63   NG2R61   CG3C51     9   180.000000    46.024000     2
   OG2D4   CG2R63   NG2R61   CG3C52     9   180.000000    46.024000     2
   OG2D4   CG2R63   NG2R61   CG3RC1     9   180.000000     4.184000     2
   OG2D4   CG2R63   NG2R61    NG2O1     9   180.000000    11.589680     2
   OG2D4   CG2R63   NG2R61   NG2R61     9     0.000000     0.376560     2
   OG2D4   CG2R63   NG2R61   NG2RC0     9   180.000000     8.577200     2
   OG2D4   CG2R63   NG2R61    NG2S3     9   180.000000     6.359680     2
   OG2D4   CG2R63   NG2R61    OG311     9   180.000000    30.877920     2
   OG2D4   CG2R63   NG2R61    OG312     9   180.000000    14.100080     2
   OG2D4   CG2R63   NG2R61     HGP1     9   180.000000     0.000000     2
   OG2D4   CG2R63   NG2R61     CN7B     9   180.000000    46.024000     2
   OG2D4   CG2R63   NG2R62   CG2R62     9   180.000000     6.694400     2
   OG2D4   CG2R63   NG2R62   CG2R64     9   180.000000     6.694400     2
   OG2D4   CG2R63   NG2R62   CG2RC0     9   180.000000     6.694400     2
   OG2D4   CG2R63   NG2R62   NG2R62     9     0.000000     0.000000     2
   OG2D4   CG2R63   NG2R67   CG2R62     9   180.000000     6.694400     2
   OG2D4   CG2R63   NG2R67   CG2R63     9   180.000000     3.765600     2
   OG2D4   CG2R63   NG2R67   CG2R64     9   180.000000    58.576000     2
   OG2D4   CG2R63   NG2R67   CG2R67     9   180.000000     6.694400     2
   OG2D4   CG2R63   NG2R67   CG2RC0     9   180.000000    10.083440     2
   OG2D4   CG2R63   NG2R67   NG2R62     9     0.000000     1.380720     2
   OG2D4   CG2R63   NG2RC0   CG2R51     9   180.000000     2.092000     2
   OG2D4   CG2R63   NG2RC0   CG2RC0     9   180.000000     2.092000     2
   OG2D4   CG2R63   OG3R60   CG2R62     9     0.000000     3.179840     2
   OG2D4   CG2R63   OG3R60   CG2R64     9     0.000000     3.179840     2
   OG2D4   CG2R63   OG3R60   CG2R67     9     0.000000     3.179840     2
   OG2D4   CG2R63    SG311   CG2R62     9     0.000000     1.297040     1
   OG2D4   CG2R63    SG311   CG2R62     9   180.000000     3.681920     2
   OG2D4   CG2R63   CG2R62     CN7B     9   180.000000    46.024000     2
   SEGD1   CG2R63   NG2R61   CG2R62     9   180.000000    10.460000     2
   SEGD1   CG2R63   NG2R61   CG2R63     9   180.000000    10.460000     2
   SEGD1   CG2R63   NG2R61    CG331     9   180.000000    29.288000     2
   SEGD1   CG2R63   NG2R61     HGP1     9   180.000000     1.882800     2
   SEGD1   CG2R63   NG2R61     CN7B     9   180.000000    46.024000     2
   HGR71   CG2R71   CG2R71    HGR71     9   180.000000    10.041600     2
   HGR71   CG2R71   CG2RC7   CG2R51     9   180.000000    12.970400     2
   HGR71   CG2R71   CG2RC7   CG2RC7     9   180.000000    12.970400     2
   HGR71   CG2R71   CG2RC7   NG2R50     9   180.000000     9.748720     2
   HGR71   CG2R71   CG2RC7   OG3C51     9   180.000000    20.083200     2
  OG3C61    CG301    CG302     FGA3     9   180.000000     2.677760     3
  OG3C61    CG301    CG311    CG301     9   180.000000     1.840960     3
  OG3C61    CG301    CG311    CG301     9     0.000000     0.125520     4
  OG3C61    CG301    CG311    CG321     9     0.000000     1.673600     3
  OG3C61    CG301    CG311    CG321     9   180.000000     0.376560     4
  OG3C61    CG301    CG311   OG3C61     9     0.000000     0.376560     3
  OG3C61    CG301    CG311     HGA1     9     0.000000     0.000000     3
  OG3C61    CG301    CG314    CG331     9     0.000000     1.924640     3
  OG3C61    CG301    CG314    NG3P1     9     0.000000     7.363840     3
  OG3C61    CG301    CG314     HGA1     9     0.000000     0.000000     3
  OG3C61    CG301    CG321    CG2D1     9     0.000000     0.000000     3
  OG3C61    CG301    CG321    CG2O5     9   180.000000     1.004160     1
  OG3C61    CG301    CG321    CG2O5     9     0.000000     3.598240     2
  OG3C61    CG301    CG321    CG2O5     9   180.000000     0.753120     4
  OG3C61    CG301    CG321   CG2R52     9   180.000000     0.502080     1
  OG3C61    CG301    CG321   CG2R52     9   180.000000     2.677760     3
  OG3C61    CG301    CG321   CG2R52     9   180.000000     5.397360     4
  OG3C61    CG301    CG321    CG311     9     0.000000     3.347200     3
  OG3C61    CG301    CG321    CG321     9     0.000000     3.347200     3
  OG3C61    CG301    CG321    CG324     9     0.000000     0.334720     1
  OG3C61    CG301    CG321    CG324     9     0.000000     0.711280     2
  OG3C61    CG301    CG321    CG324     9     0.000000    15.522640     3
  OG3C61    CG301    CG321    CG324     9   180.000000     1.464400     5
  OG3C61    CG301    CG321    NG301     9   180.000000     1.171520     3
  OG3C61    CG301    CG321    NG311     9     0.000000     0.125520     3
  OG3C61    CG301    CG321    NG311     9   180.000000     0.251040     4
  OG3C61    CG301    CG321     HGA2     9     0.000000     0.669440     3
  OG3C61    CG301    CG324    NG3P1     9   180.000000     0.962320     2
  OG3C61    CG301    CG324    NG3P1     9   180.000000     0.669440     3
  OG3C61    CG301    CG324    NG3P2     9   180.000000    15.397120     3
  OG3C61    CG301    CG324     HGA2     9     0.000000     0.669440     3
  OG3C61    CG301    CG331     HGA3     9     0.000000     0.669440     3
  OG3C61    CG301    OG311     HGP1     9     0.000000     6.485200     1
  OG3C61    CG301    OG311     HGP1     9     0.000000     4.895280     2
  OG3C61    CG301    OG311     HGP1     9     0.000000     4.476880     3
  OG3C61    CG301   OG3C61    CG311     9     0.000000     4.853440     3
  OG3C61    CG301   OG3C61    CG311     9     0.000000     7.907760     4
  OG3C61    CG301   OG3C61    CG321     9     0.000000    11.547840     3
  OG3C61    CG301   OG3R60   CG2R61     9     0.000000     0.083680     2
  OG3C61    CG301   OG3R60   CG2R61     9     0.000000     0.543920     3
  OG3C61    CG311    CG311   OG3C61     9     0.000000     0.836800     3
  OG3C61    CG311    CG311     HGA1     9     0.000000     0.836800     3
  OG3C61    CG311    CG314    CG321     9   180.000000     0.794960     1
  OG3C61    CG311    CG314    CG321     9   180.000000     4.184000     2
  OG3C61    CG311    CG314    CG321     9     0.000000     2.510400     3
  OG3C61    CG311    CG314    CG321     9   180.000000     0.334720     4
  OG3C61    CG311    CG314    NG3P2     9     0.000000     3.347200     3
  OG3C61    CG311    CG314     HGA1     9     0.000000     0.836800     3
  OG3C61    CG311    CG321    CG2D1     9     0.000000     2.719600     3
  OG3C61    CG311    CG321    CG2D1     9   180.000000    13.388800     4
  OG3C61    CG311    CG321   CG2R61     9     0.000000     0.167360     1
  OG3C61    CG311    CG321   CG2R61     9   180.000000     0.334720     3
  OG3C61    CG311    CG321   CG2R61     9   180.000000     0.292880     4
  OG3C61    CG311    CG321    CG301     9   180.000000     0.794960     1
  OG3C61    CG311    CG321    CG301     9   180.000000     4.184000     2
  OG3C61    CG311    CG321    CG301     9     0.000000     2.510400     3
  OG3C61    CG311    CG321    CG301     9   180.000000     0.334720     4
  OG3C61    CG311    CG321    CG311     9   180.000000     0.794960     1
  OG3C61    CG311    CG321    CG311     9   180.000000     4.184000     2
  OG3C61    CG311    CG321    CG311     9     0.000000     2.510400     3
  OG3C61    CG311    CG321    CG311     9   180.000000     0.334720     4
  OG3C61    CG311    CG321    CG314     9   180.000000     0.041840     1
  OG3C61    CG311    CG321    CG314     9     0.000000     0.125520     2
  OG3C61    CG311    CG321    CG314     9   180.000000     0.460240     3
  OG3C61    CG311    CG321    CG314     9     0.000000     2.050160     5
  OG3C61    CG311    CG321    CG321     9   180.000000     0.794960     1
  OG3C61    CG311    CG321    CG321     9   180.000000     4.184000     2
  OG3C61    CG311    CG321    CG321     9     0.000000     2.510400     3
  OG3C61    CG311    CG321    CG321     9   180.000000     0.334720     4
  OG3C61    CG311    CG321    CG324     9   180.000000     1.924640     1
  OG3C61    CG311    CG321    CG324     9     0.000000     0.125520     2
  OG3C61    CG311    CG321    CG324     9   180.000000     1.129680     3
  OG3C61    CG311    CG321    CG324     9   180.000000     1.631760     5
  OG3C61    CG311    CG321    NG301     9     0.000000     4.267680     3
  OG3C61    CG311    CG321    NG321     9     0.000000     3.640080     3
  OG3C61    CG311    CG321    OG311     9     0.000000     3.221680     3
  OG3C61    CG311    CG321   OG3C61     9     0.000000     0.836800     3
  OG3C61    CG311    CG321     HGA2     9     0.000000     0.815880     3
  OG3C61    CG311    CG324    NG3P1     9     0.000000     3.347200     3
  OG3C61    CG311    CG324     HGA2     9     0.000000     0.836800     3
  OG3C61    CG311    CG331     HGA3     9     0.000000     0.836800     3
  OG3C61    CG311   CG3C51   CG3C52     9     0.000000     2.635920     3
  OG3C61    CG311   CG3C51   CG3C52     9     0.000000     0.000000     6
  OG3C61    CG311   CG3C51   OG3C51     9   180.000000     2.175680     1
  OG3C61    CG311   CG3C51   OG3C51     9     0.000000     0.167360     3
  OG3C61    CG311   CG3C51     HGA1     9     0.000000     0.836800     3
  OG3C61    CG311   NG2R51   CG2R53     9     0.000000     4.769760     1
  OG3C61    CG311   NG2R51   CG2R53     9     0.000000     7.573040     2
  OG3C61    CG311   NG2R51   CG2R53     9     0.000000     4.435040     3
  OG3C61    CG311   NG2R51   CG2R53     9   180.000000     1.799120     4
  OG3C61    CG311   NG2R51   CG2R53     9   180.000000     1.338880     6
  OG3C61    CG311   NG2R51   CG2RC0     9   180.000000     2.343040     1
  OG3C61    CG311   NG2R51   CG2RC0     9     0.000000     2.217520     2
  OG3C61    CG311   NG2R51   CG2RC0     9     0.000000     1.464400     3
  OG3C61    CG311   NG2R51   CG2RC0     9   180.000000     1.715440     4
  OG3C61    CG311   NG2R61   CG2R62     9     0.000000     0.083680     1
  OG3C61    CG311   NG2R61   CG2R62     9   180.000000     1.757280     6
  OG3C61    CG311   NG2R61   CG2R63     9     0.000000     2.468560     2
  OG3C61    CG311   NG2R61   CG2R63     9     0.000000     2.761440     6
  OG3C61    CG311    NG321   HGPAM2     9     0.000000     2.217520     3
  OG3C61    CG311    NG321   HGPAM2     9   180.000000     1.129680     6
  OG3C61    CG311    OG301    CG331     9     0.000000     5.983120     1
  OG3C61    CG311    OG301    CG331     9     0.000000     3.640080     2
  OG3C61    CG311    OG301    CG331     9     0.000000     5.606560     3
  OG3C61    CG311    OG301   CG3C51     9     0.000000     3.430880     1
  OG3C61    CG311    OG301   CG3C51     9     0.000000     3.389040     2
  OG3C61    CG311    OG301   CG3C51     9     0.000000     1.464400     3
  OG3C61    CG311    OG311     HGP1     9     0.000000     9.414000     2
  OG3C61    CG311    OG311     HGP1     9     0.000000     2.677760     3
  OG3C61    CG311   OG3C61    CG301     9     0.000000     4.184000     3
  OG3C61    CG311   OG3C61    CG311     9     0.000000     4.184000     3
  OG3C61    CG314    NG3P3     HGP2     9     0.000000     1.506240     3
  OG3C61    CG321    CG321   OG3C61     9     0.000000     0.815880     3
  OG3C61    CG321    CG321     HGA2     9     0.000000     0.815880     3
  OG3C61    CG321    CG324    NG3P0     9     0.000000     3.347200     3
  OG3C61    CG321    CG324    NG3P1     9     0.000000     3.347200     3
  OG3C61    CG321    CG324    NG3P2     9     0.000000     3.347200     3
  OG3C61    CG321    CG324     HGA2     9     0.000000     0.815880     3
  OG3C61    CG321    CG324     HGP5     9     0.000000     0.836800     3
  OG3C61    CG321   CG3C31   CG3C31     9   180.000000     1.589920     3
  OG3C61    CG321   CG3C31   CG3C31     9   180.000000     0.585760     6
  OG3C61    CG321   CG3C31    NG3P1     9   180.000000     2.594080     1
  OG3C61    CG321   CG3C31    NG3P1     9   180.000000     4.518720     3
  OG3C61    CG321   CG3C50   CG3C52     9     0.000000     0.627600     3
  OG3C61    CG321   CG3C50    NG301     9     0.000000     0.083680     1
  OG3C61    CG321   CG3C50    NG301     9     0.000000    14.141920     3
  OG3C61    CG321   CG3C50    NG3P1     9     0.000000     2.217520     3
  OG3C61    CG321   CG3RC1   CG2R52     9     0.000000     4.978960     4
  OG3C61    CG321   CG3RC1   CG3C51     9     0.000000     2.092000     2
  OG3C61    CG321   CG3RC1     HGA1     9     0.000000     0.000000     3
  OG3C61    CG321   OG3C61    CG311     9     0.000000     4.184000     3
  OG3C61    CG321   OG3C61    CG321     9     0.000000     4.184000     3
  OG3C61    CG324    NG3P0    CG324     9   180.000000     0.418400     3
  OG3C61    CG324    NG3P0    CG334     9   180.000000     1.966480     3
  OG3C61   CG3C31   CG3C31     HGA2     9   180.000000     0.000000     6
  OG3C61   CG3C41   CG3C41     HGA2     9     0.000000     0.000000     3
  OG3C61   CG3C50   CG3C52   CG3C50     9     0.000000     5.313680     3
  OG3C61   CG3C50   CG3C52   CG3C50     9     0.000000     1.380720     5
  OG3C61   CG3C50   CG3C52   CG3C50     9     0.000000     2.217520     6
  OG3C61   CG3C50   CG3C52   CG3C52     9     0.000000     0.836800     3
  OG3C61   CG3C50   CG3C52   CG3C52     9   180.000000     2.510400     5
  OG3C61   CG3C50   CG3C52   CG3C52     9     0.000000     0.753120     6
  OG3C61   CG3C50   CG3C52     HGA2     9   180.000000     0.000000     3
  OG3C61   CG3C50   OG3C61    CG311     9     0.000000     1.129680     2
  OG3C61   CG3C50   OG3C61    CG311     9     0.000000     1.213360     3
  OG3C61   CG3C50   OG3C61    CG311     9     0.000000     6.903600     4
  OG3C61   CG3C50   OG3C61    CG321     9     0.000000     1.715440     2
  OG3C61   CG3C50   OG3C61    CG321     9     0.000000     1.548080     3
  OG3C61   CG3C50   OG3C61    CG321     9     0.000000     1.966480     4
  OG3C61   CG3RC1   CG3RC1     HGA1     9     0.000000     0.000000     3
   NG3P3    CG301    CG321    CG321     9     0.000000     0.836800     3
   NG3P3    CG301    CG321    NG301     9   180.000000     5.271840     2
   NG3P3    CG301    CG321    NG301     9     0.000000     0.083680     3
   NG3P3    CG301    CG321     HGA2     9     0.000000     0.836800     3
   NG3P3    CG301    CG331     HGA3     9     0.000000     0.836800     3
   NG3P3    CG314    CG314     HGA1     9     0.000000     0.836800     3
   NG3P3    CG314    CG321    CG2D1     9   180.000000     4.727920     3
   NG3P3    CG314    CG321   CG2DC1     9     0.000000     1.338880     3
   NG3P3    CG314    CG321   CG2DC2     9     0.000000     1.338880     3
   NG3P3    CG314    CG321    CG2O1     9     0.000000     0.836800     3
   NG3P3    CG314    CG321    CG2O3     9     0.000000     0.836800     3
   NG3P3    CG314    CG321   CG2R51     9     0.000000     0.836800     3
   NG3P3    CG314    CG321   CG2R52     9     0.000000     0.836800     3
   NG3P3    CG314    CG321   CG2R61     9     0.000000     0.836800     3
   NG3P3    CG314    CG321    CG311     9     0.000000     0.836800     3
   NG3P3    CG314    CG321    CG312     9   180.000000     1.589920     2
   NG3P3    CG314    CG321    CG312     9     0.000000     8.660880     3
   NG3P3    CG314    CG321    CG314     9   180.000000     4.435040     3
   NG3P3    CG314    CG321    CG321     9     0.000000     0.836800     3
   NG3P3    CG314    CG321    CG324     9   180.000000     1.673600     3
   NG3P3    CG314    CG321    NG2S1     9     0.000000     0.836800     3
   NG3P3    CG314    CG321    NG301     9   180.000000     1.004160     2
   NG3P3    CG314    CG321    NG301     9     0.000000     1.631760     3
   NG3P3    CG314    CG321    OG311     9     0.000000     0.836800     3
   NG3P3    CG314    CG321    SG311     9     0.000000     0.836800     3
   NG3P3    CG314    CG321    CLGA1     9     0.000000     0.425513     3
   NG3P3    CG314    CG321     HGA2     9     0.000000     0.836800     3
   NG3P3    CG314    CG324    NG3P2     9   180.000000     6.568880     3
   NG3P3    CG314    CG324    NG3P2     9     0.000000     0.000000     4
   NG3P3    CG314    CG324     HGA2     9     0.000000     0.836800     3
   NG3P3    CG314    CG331     HGA3     9     0.000000     0.836800     3
   NG3P3    CG314   CG3C51   CG3C52     9     0.000000     3.273562     3
   NG3P3    CG314   CG3C51   OG3C51     9     0.000000     8.997274     1
   NG3P3    CG314   CG3C51     HGA1     9     0.000000     0.577392     3
   NG3P3    CG314   CG3RC1   CG3C52     9     0.000000     0.836800     2
   NG3P3    CG314   CG3RC1   CG3C52     9   180.000000     9.330320     3
   NG3P3    CG314   CG3RC1   CG3RC1     9     0.000000     0.334720     2
   NG3P3    CG314   CG3RC1     HGA1     9     0.000000     0.000000     3
   NG3P3    CG314    NG311    CG321     9     0.000000     1.721716     1
   NG3P3    CG314    NG311    CG321     9     0.000000     1.996605     2
   NG3P3    CG314    NG311    CG321     9     0.000000     2.203294     3
   NG3P3    CG314    NG311    CG331     9     0.000000     1.721716     1
   NG3P3    CG314    NG311    CG331     9     0.000000     1.996605     2
   NG3P3    CG314    NG311    CG331     9     0.000000     2.203294     3
   NG3P3    CG314    NG311   HGPAM1     9   180.000000     4.083584     2
   NG3P3    CG314    NG311   HGPAM1     9     0.000000     0.584923     3
   NG3P3    CG314   OG3C61    CG321     9     0.000000     4.518720     2
   NG3P3    CG314   OG3C61    CG321     9     0.000000     2.761440     3
   NG3P3    CG314    SG311    CG321     9     0.000000     1.022151     1
   NG3P3    CG314    SG311    CG321     9     0.000000     6.235834     2
   NG3P3    CG314    SG311    CG321     9     0.000000     0.182004     3
   NG3P3    CG314    SG311    CG331     9     0.000000     1.022151     1
   NG3P3    CG314    SG311    CG331     9     0.000000     6.235834     2
   NG3P3    CG314    SG311    CG331     9     0.000000     0.182004     3
   NG3P3    CG324    CG331     HGA3     9     0.000000     0.836800     3
   NG3P3    CG324   CG3C31   CG3C31     9     0.000000     0.815880     3
   NG3P3    CG324   CG3C31   CG3RC1     9     0.000000     6.610720     3
   NG3P3    CG324   CG3C31   CG3RC1     9   180.000000     0.000000     6
   NG3P3    CG324   CG3C31     HGA1     9     0.000000     0.836800     3
   NG3P3    CG324   CG3C50   CG3C52     9   180.000000     0.167360     3
   NG3P3    CG324   CG3C50    OG311     9   180.000000    10.627360     1
   NG3P3    CG324   CG3C50    OG311     9     0.000000     5.104480     3
   NG3P3    CG324   CG3C51   CG3C50     9     0.000000     3.263520     3
   NG3P3    CG324   CG3C51   CG3C52     9     0.000000     3.263520     3
   NG3P3    CG324   CG3C51   NG3C51     9   180.000000    25.857120     1
   NG3P3    CG324   CG3C51   NG3C51     9   180.000000     6.527040     2
   NG3P3    CG324   CG3C51   NG3C51     9     0.000000     8.200640     3
   NG3P3    CG324   CG3C51     HGA1     9     0.000000     0.585760     3
   NG3P3    CG324      CT1        C     9     0.000000     0.836800     3
   NG3P3   CG3C31   CG3C31    OG301     9     0.000000     1.297040     4
   NG3P3   CG3C31   CG3C31    OG301     9     0.000000     2.343040     6
   NG3P3   CG3C31   CG3C31     HGA1     9   180.000000     0.000000     5
   NG3P3   CG3C31   CG3C31     HGA2     9   180.000000     0.000000     5
   NG3P3   CG3C31   CG3RC1   CG3C52     9     0.000000     0.000000     2
   NG3P3   CG3C31   CG3RC1   CG3C52     9   180.000000     3.598240     3
   NG3P3   CG3C31   CG3RC1   CG3RC1     9   180.000000     0.125520     2
   NG3P3   CG3C31   CG3RC1   CG3RC1     9   180.000000     7.740400     3
   NG3P3   CG3C31   CG3RC1     HGA1     9     0.000000     0.000000     3
   NG3P3   CG3C41   CG3C41     HGA2     9     0.000000     0.000000     3
   NG3P3   CG3C50   CG3C52   CG2RC0     9   180.000000     2.050160     3
   NG3P3   CG3C50   CG3C52   CG2RC0     9     0.000000     0.000000     6
   NG3P3   CG3C50   CG3C52   CG3C52     9     0.000000     0.585760     3
   NG3P3   CG3C50   CG3C52   NG3C51     9   180.000000     0.000000     3
   NG3P3   CG3C50   CG3C52     HGA2     9     0.000000     0.585760     3
   NG3P3   CG3C50    OG311     HGP1     9   180.000000     5.564720     1
   NG3P3   CG3C50    OG311     HGP1     9     0.000000    11.506000     2
   NG3P3   CG3C50    OG311     HGP1     9     0.000000     4.727920     3
   NG3P3   CG3C50    OG311     HGP1     9     0.000000     0.962320     4
   NG3P3   CG3C53   CG3C54    NG3P2     9     0.000000     1.046000     3
   NG3P3   CG3C53   CG3C54     HGA2     9     0.000000     0.585760     3
   NG3P3   CG3C53   CG3RC1    CG324     9     0.000000     0.083680     2
   NG3P3   CG3C53   CG3RC1    CG324     9   180.000000     4.142160     3
   NG3P3   CG3C53   CG3RC1   CG3C52     9   180.000000     0.083680     2
   NG3P3   CG3C53   CG3RC1   CG3C52     9   180.000000     2.343040     3
   NG3P3   CG3C53   CG3RC1   CG3RC1     9     0.000000     3.765600     2
   NG3P3   CG3C53   CG3RC1   CG3RC1     9     0.000000     2.928800     3
   NG3P3   CG3C53   CG3RC1   OG3C31     9   180.000000     2.092000     4
   NG3P3   CG3C53   CG3RC1   OG3C51     9   180.000000     0.334720     2
   NG3P3   CG3C53   CG3RC1   OG3C51     9     0.000000     0.962320     4
   NG3P3   CG3C53   CG3RC1    SG311     9     0.000000     6.778080     3
   NG3P3   CG3C53   CG3RC1     HGA1     9     0.000000     1.046000     3
   NG3P3   CG3RC1   CG3RC1     HGA1     9     0.000000     0.000000     3
   CLGA3    CG301    CG331     HGA3     9     0.000000     1.129680     3
   BRGA3    CG301    CG331     HGA3     9     0.000000     1.087840     3
    FGA3    CG302    CG311    CG2O1     9   180.000000     0.125520     3
    FGA3    CG302    CG311    CG2O5     9     0.000000     0.920480     3
    FGA3    CG302    CG311   CG2R51     9     0.000000     0.460240     3
    FGA3    CG302    CG311    CG301     9     0.000000     1.046000     3
    FGA3    CG302    CG311    CG311     9     0.000000     1.046000     3
    FGA3    CG302    CG311    CG314     9     0.000000     0.627600     3
    FGA3    CG302    CG311    CG321     9     0.000000     1.066083     3
    FGA3    CG302    CG311    CG324     9     0.000000     0.669440     3
    FGA3    CG302    CG311    CG331     9     0.000000     1.066083     3
    FGA3    CG302    CG311    NG311     9     0.000000     0.502080     3
    FGA3    CG302    CG311     HGA1     9     0.000000     0.661072     3
    FGA3    CG302    CG314    CG2O3     9     0.000000     4.904903     3
    FGA3    CG302    CG314    CG321     9     0.000000     1.046000     3
    FGA3    CG302    CG314    NG2P1     9     0.000000     1.087840     3
    FGA3    CG302    CG314    NG3P3     9   180.000000     3.619160     3
    FGA3    CG302    CG314     HGA1     9     0.000000     0.661072     3
    FGA3    CG302    CG321    OG311     9     0.000000     1.046000     3
    FGA3    CG302    CG321     HGA2     9     0.000000     0.661072     3
    FGA3    CG302    CG331     HGA3     9     0.000000     0.661072     3
    FGA3    CG302   CG3C50   CG2R53     9   180.000000     1.087840     3
    FGA3    CG302   CG3C50   CG2RC0     9     0.000000     5.104480     3
    FGA3    CG302   CG3C50   CG3C52     9     0.000000     1.589920     3
    FGA3    CG302   CG3C50    NG321     9   180.000000     0.292880     3
    FGA3    CG302   CG3C50    OG311     9   180.000000     2.970640     3
    FGA3    CG302   CG3C51   CG3C51     9   180.000000     0.418400     3
    FGA3    CG302   CG3C51   CG3C54     9     0.000000     2.594080     3
    FGA3    CG302   CG3C51     HGA1     9     0.000000     0.000000     3
    FGA3    CG302   CG3RC1    CG321     9   180.000000     1.589920     3
    FGA3    CG302   CG3RC1   CG3C52     9     0.000000     0.167360     2
    FGA3    CG302   CG3RC1   CG3C52     9     0.000000     3.974800     3
    FGA3    CG302   CG3RC1   CG3RC1     9     0.000000     0.209200     1
    FGA3    CG302   CG3RC1   CG3RC1     9     0.000000     1.464400     2
    FGA3    CG302   CG3RC1   CG3RC1     9   180.000000     0.083680     3
    HGA1    CG311    CG311     HGA1     9     0.000000     0.815880     3
    HGA1    CG311    CG312    CG2O1     9     0.000000     0.000000     3
    HGA1    CG311    CG312    CG311     9     0.000000     0.000000     3
    HGA1    CG311    CG312    CG321     9     0.000000     0.000000     3
    HGA1    CG311    CG312    CG324     9     0.000000     0.000000     3
    HGA1    CG311    CG312     FGA2     9     0.000000     0.753120     3
    HGA1    CG311    CG314    CG2O1     9     0.000000     0.836800     3
    HGA1    CG311    CG314    CG2O3     9     0.000000     0.836800     3
    HGA1    CG311    CG314   CG2R61     9     0.000000     0.000000     3
    HGA1    CG311    CG314    CG311     9     0.000000     0.836800     3
    HGA1    CG311    CG314    CG321     9     0.000000     0.836800     3
    HGA1    CG311    CG314    CG331     9     0.000000     0.836800     3
    HGA1    CG311    CG314    NG3P1     9     0.000000     0.836800     3
    HGA1    CG311    CG314    NG3P2     9     0.000000     0.836800     3
    HGA1    CG311    CG314    NG3P3     9     0.000000     0.836800     3
    HGA1    CG311    CG314    OG311     9     0.000000     0.836800     3
    HGA1    CG311    CG314   OG3C61     9     0.000000     0.836800     3
    HGA1    CG311    CG314     HGA1     9     0.000000     0.815880     3
    HGA1    CG311    CG321    CG2D1     9     0.000000     0.836800     3
    HGA1    CG311    CG321   CG2DC1     9     0.000000     0.836800     3
    HGA1    CG311    CG321   CG2DC2     9     0.000000     0.836800     3
    HGA1    CG311    CG321    CG2O1     9     0.000000     0.836800     3
    HGA1    CG311    CG321    CG2O2     9     0.000000     0.836800     3
    HGA1    CG311    CG321    CG2O3     9     0.000000     0.836800     3
    HGA1    CG311    CG321    CG2O5     9     0.000000     0.836800     3
    HGA1    CG311    CG321   CG2R51     9     0.000000     0.836800     3
    HGA1    CG311    CG321   CG2R53     9     0.000000     0.836800     3
    HGA1    CG311    CG321   CG2R61     9     0.000000     0.167360     3
    HGA1    CG311    CG321   CG2R62     9     0.000000     0.167360     3
    HGA1    CG311    CG321    CG301     9     0.000000     0.815880     3
    HGA1    CG311    CG321    CG311     9     0.000000     0.815880     3
    HGA1    CG311    CG321    CG314     9     0.000000     0.815880     3
    HGA1    CG311    CG321    CG321     9     0.000000     0.815880     3
    HGA1    CG311    CG321    CG322     9     0.000000     0.209200     3
    HGA1    CG311    CG321    CG324     9     0.000000     0.815880     3
    HGA1    CG311    CG321    CG331     9     0.000000     0.836800     3
    HGA1    CG311    CG321   CG3C41     9     0.000000     0.836800     3
    HGA1    CG311    CG321   CG3C50     9     0.000000     2.092000     3
    HGA1    CG311    CG321   CG3C51     9     0.000000     2.092000     3
    HGA1    CG311    CG321   CG3RC1     9     0.000000     0.627600     3
    HGA1    CG311    CG321   NG2R51     9     0.000000     0.543920     3
    HGA1    CG311    CG321   NG2R61     9     0.000000     0.543920     3
    HGA1    CG311    CG321    NG2S0     9     0.000000     1.255200     3
    HGA1    CG311    CG321    NG2S1     9     0.000000     0.836800     3
    HGA1    CG311    CG321    NG301     9     0.000000     0.753120     3
    HGA1    CG311    CG321    NG311     9     0.000000     0.753120     3
    HGA1    CG311    CG321    NG321     9     0.000000     0.753120     3
    HGA1    CG311    CG321   NG3C51     9     0.000000     0.815880     3
    HGA1    CG311    CG321    NG3N1     9     0.000000     0.753120     3
    HGA1    CG311    CG321    OG301     9     0.000000     0.836800     3
    HGA1    CG311    CG321    OG302     9     0.000000     0.815880     3
    HGA1    CG311    CG321    OG303     9     0.000000     0.815880     3
    HGA1    CG311    CG321    OG311     9     0.000000     0.815880     3
    HGA1    CG311    CG321   OG3C61     9     0.000000     0.836800     3
    HGA1    CG311    CG321   OG3R60     9     0.000000     0.836800     3
    HGA1    CG311    CG321    SG311     9     0.000000     0.815880     3
    HGA1    CG311    CG321    SG3O2     9     0.000000     0.041840     1
    HGA1    CG311    CG321    SG3O3     9     0.000000     0.669440     3
    HGA1    CG311    CG321    CLGA1     9     0.000000     1.222565     3
    HGA1    CG311    CG321     HGA2     9     0.000000     0.815880     3
    HGA1    CG311    CG322    CG321     9     0.000000     0.000000     3
    HGA1    CG311    CG322    CG324     9     0.000000     0.000000     3
    HGA1    CG311    CG322     FGA1     9     0.000000     0.774040     3
    HGA1    CG311    CG322     HGA6     9     0.000000     0.774040     3
    HGA1    CG311    CG324    NG2P1     9     0.000000     0.815880     3
    HGA1    CG311    CG324   NG2R52     9     0.000000     0.836800     3
    HGA1    CG311    CG324    NG3P1     9     0.000000     0.815880     3
    HGA1    CG311    CG324    NG3P2     9     0.000000     0.815880     3
    HGA1    CG311    CG324    NG3P3     9     0.000000     0.815880     3
    HGA1    CG311    CG324     HGA2     9     0.000000     0.815880     3
    HGA1    CG311    CG331     HGA3     9     0.000000     0.815880     3
    HGA1    CG311   CG3C31   CG3C31     9     0.000000     0.041840     1
    HGA1    CG311   CG3C31   CG3C31     9     0.000000     0.083680     3
    HGA1    CG311   CG3C31     HGA1     9     0.000000     0.000000     3
    HGA1    CG311   CG3C41    CG324     9     0.000000     0.000000     3
    HGA1    CG311   CG3C41   CG3C41     9     0.000000     0.000000     3
    HGA1    CG311   CG3C50    CG311     9     0.000000     0.000000     3
    HGA1    CG311   CG3C50    CG324     9     0.000000     0.000000     3
    HGA1    CG311   CG3C50   CG3C52     9     0.000000     0.669440     3
    HGA1    CG311   CG3C50   OG3C51     9     0.000000     0.669440     3
    HGA1    CG311   CG3C50   OG3C61     9     0.000000     0.000000     3
    HGA1    CG311   CG3C50    SG311     9     0.000000     0.000000     3
    HGA1    CG311   CG3C51   CG3C51     9     0.000000     0.669440     3
    HGA1    CG311   CG3C51   CG3C52     9     0.000000     0.669440     3
    HGA1    CG311   CG3C51   CG3C53     9     0.000000     0.000000     3
    HGA1    CG311   CG3C51   CG3C54     9     0.000000     0.000000     3
    HGA1    CG311   CG3C51   CG3RC1     9     0.000000     0.836800     3
    HGA1    CG311   CG3C51   NG2R53     9     0.000000     0.000000     3
    HGA1    CG311   CG3C51   NG3C51     9     0.000000     0.000000     3
    HGA1    CG311   CG3C51   OG3C51     9     0.000000     0.000000     3
    HGA1    CG311   CG3C51     HGA1     9     0.000000     0.669440     3
    HGA1    CG311   CG3C53   CG3C52     9     0.000000     0.669440     3
    HGA1    CG311   CG3C53    NG3P2     9     0.000000     0.000000     3
    HGA1    CG311   CG3C53     HGA1     9     0.000000     0.669440     3
    HGA1    CG311   CG3RC1   CG2RC0     9     0.000000     0.000000     3
    HGA1    CG311   CG3RC1    CG331     9     0.000000     0.209200     3
    HGA1    CG311   CG3RC1   CG3C31     9     0.000000     0.836800     3
    HGA1    CG311   CG3RC1   CG3C41     9     0.000000     0.000000     3
    HGA1    CG311   CG3RC1   CG3C51     9     0.000000     0.209200     3
    HGA1    CG311   CG3RC1   CG3C52     9     0.000000     0.815880     3
    HGA1    CG311   CG3RC1   CG3RC1     9     0.000000     0.627600     3
    HGA1    CG311   CG3RC1    NG2S0     9     0.000000     0.000000     3
    HGA1    CG311   CG3RC1    NG3P2     9     0.000000     0.000000     3
    HGA1    CG311   CG3RC1    OG311     9     0.000000     0.000000     3
    HGA1    CG311   CG3RC1   OG3C31     9     0.000000     0.000000     3
    HGA1    CG311   CG3RC1   OG3C51     9     0.000000     0.000000     3
    HGA1    CG311   CG3RC1     HGA1     9     0.000000     0.627600     3
    HGA1    CG311    NG2D1   CG2DC1     9     0.000000     0.418400     3
    HGA1    CG311    NG2D1   CG2DC2     9     0.000000     0.418400     3
    HGA1    CG311    NG2D1   CG2R64     9   180.000000     0.000000     3
    HGA1    CG311    NG2D1    NG2D1     9     0.000000     0.000000     3
    HGA1    CG311    NG2O1    OG2N1     9   180.000000     0.041840     6
    HGA1    CG311   NG2R51   CG2R51     9     0.000000     0.000000     3
    HGA1    CG311   NG2R51   CG2R53     9     0.000000     0.000000     3
    HGA1    CG311   NG2R51   CG2RC0     9     0.000000     0.000000     3
    HGA1    CG311   NG2R51   NG2R50     9     0.000000     0.000000     3
    HGA1    CG311   NG2R53   CG2R53     9     0.000000     0.000000     1
    HGA1    CG311   NG2R53   CG3C52     9     0.000000     0.000000     3
    HGA1    CG311   NG2R61   CG2R62     9     0.000000     0.000000     3
    HGA1    CG311   NG2R61   CG2R63     9     0.000000     0.209200     6
    HGA1    CG311   NG2R61   CG2R64     9     0.000000     0.000000     3
    HGA1    CG311    NG2S0   CG2D1O     9     0.000000     0.000000     1
    HGA1    CG311    NG2S0   CG2D2O     9     0.000000     0.000000     1
    HGA1    CG311    NG2S0    CG2O1     9     0.000000     0.000000     1
    HGA1    CG311    NG2S0    CG2O3     9     0.000000     0.000000     1
    HGA1    CG311    NG2S0    CG2O6     9     0.000000     0.000000     1
    HGA1    CG311    NG2S0   CG2R61     9     0.000000     0.000000     1
    HGA1    CG311    NG2S0    CG311     9     0.000000     1.757280     3
    HGA1    CG311    NG2S0    CG321     9     0.000000     1.757280     3
    HGA1    CG311    NG2S0    CG331     9     0.000000     1.757280     3
    HGA1    CG311    NG2S0   CG3C31     9     0.000000     1.757280     3
    HGA1    CG311    NG2S1    CG2O1     9     0.000000     0.000000     1
    HGA1    CG311    NG2S1    CG2O3     9     0.000000     0.000000     1
    HGA1    CG311    NG2S1    CG2O6     9     0.000000     0.000000     1
    HGA1    CG311    NG2S1     HGP1     9     0.000000     0.000000     1
    HGA1    CG311    NG301   CG2D1O     9     0.000000     0.000000     3
    HGA1    CG311    NG301   CG2D2O     9     0.000000     0.000000     3
    HGA1    CG311    NG301   CG2R61     9   180.000000     0.000000     3
    HGA1    CG311    NG301   CG2R62     9   180.000000     0.000000     3
    HGA1    CG311    NG301   CG2R64     9   180.000000     0.000000     3
    HGA1    CG311    NG301    CG301     9     0.000000     0.418400     3
    HGA1    CG311    NG301    CG311     9     0.000000     0.418400     3
    HGA1    CG311    NG301    CG321     9     0.000000     0.000000     3
    HGA1    CG311    NG301    CG331     9     0.000000     0.000000     3
    HGA1    CG311    NG301    OG311     9     0.000000     0.000000     3
    HGA1    CG311    NG301    OG311     9     0.000000     0.000000     6
    HGA1    CG311    NG301    SG3O2     9     0.000000     0.418400     3
    HGA1    CG311    NG311   CG2D1O     9   180.000000     0.000000     3
    HGA1    CG311    NG311   CG2D2O     9   180.000000     0.000000     3
    HGA1    CG311    NG311   CG2R51     9   180.000000     0.000000     3
    HGA1    CG311    NG311   CG2R61     9   180.000000     0.000000     3
    HGA1    CG311    NG311   CG2R62     9   180.000000     0.000000     3
    HGA1    CG311    NG311   CG2R64     9   180.000000     0.209200     3
    HGA1    CG311    NG311    CG311     9     0.000000     0.000000     3
    HGA1    CG311    NG311    CG314     9   180.000000     0.502080     3
    HGA1    CG311    NG311    CG321     9     0.000000     0.000000     3
    HGA1    CG311    NG311    CG331     9     0.000000     0.000000     3
    HGA1    CG311    NG311   OG3R60     9     0.000000     0.000000     3
    HGA1    CG311    NG311     HGP1     9     0.000000     0.209200     3
    HGA1    CG311    NG311   HGPAM1     9     0.000000     0.209200     3
    HGA1    CG311    NG321   HGPAM2     9     0.000000     0.041840     3
    HGA1    CG311   NG3C51   CG2R53     9   180.000000     0.000000     3
    HGA1    CG311   NG3C51   CG2RC0     9   180.000000     0.000000     3
    HGA1    CG311   NG3C51   CG3C52     9     0.000000     0.878640     3
    HGA1    CG311   NG3C51   OG3C51     9     0.000000     0.000000     3
    HGA1    CG311    NG3N1    NG3N1     9     0.000000     0.000000     3
    HGA1    CG311    NG3N1     HGP1     9     0.000000     0.000000     3
    HGA1    CG311    OG301   CG2R61     9     0.000000     0.418400     3
    HGA1    CG311    OG301    CG321     9     0.000000     1.171520     3
    HGA1    CG311    OG301    CG331     9     0.000000     1.188256     3
    HGA1    CG311    OG301   CG3C51     9     0.000000     1.464400     3
    HGA1    CG311    OG301    NG301     9     0.000000     3.556400     3
    HGA1    CG311    OG301    OG311     9     0.000000     0.836800     3
    HGA1    CG311    OG302    CG2O2     9     0.000000     0.000000     3
    HGA1    CG311    OG303      PG0     9     0.000000     0.000000     3
    HGA1    CG311    OG303      PG2     9     0.000000     0.000000     3
    HGA1    CG311    OG303    SG3O1     9     0.000000     0.000000     3
    HGA1    CG311    OG311     HGP1     9     0.000000     0.000000     3
    HGA1    CG311   OG3C61    CG301     9     0.000000     0.836800     3
    HGA1    CG311   OG3C61    CG311     9     0.000000     0.836800     3
    HGA1    CG311   OG3C61    CG321     9     0.000000     0.815880     3
    HGA1    CG311   OG3C61   CG3C41     9     0.000000     0.836800     3
    HGA1    CG311   OG3C61   CG3C50     9     0.000000     0.000000     3
    HGA1    CG311   OG3C61    NG2S0     9     0.000000     0.000000     3
    HGA1    CG311   OG3R60   CG2D1O     9     0.000000     3.765600     3
    HGA1    CG311   OG3R60   CG2D2O     9     0.000000     3.765600     3
    HGA1    CG311   OG3R60    CG2O2     9     0.000000     0.000000     3
    HGA1    CG311   OG3R60    CG2O6     9     0.000000     0.000000     3
    HGA1    CG311   OG3R60   CG2R61     9     0.000000     0.000000     3
    HGA1    CG311   OG3R60    NG2D1     9     0.000000     0.000000     3
    HGA1    CG311   OG3R60   NG2R61     9     0.000000     0.000000     3
    HGA1    CG311    SG311   CG2D1O     9     0.000000     0.000000     3
    HGA1    CG311    SG311   CG2D2O     9     0.000000     0.000000     3
    HGA1    CG311    SG311   CG2R61     9     0.000000     0.836800     3
    HGA1    CG311    SG311    CG311     9     0.000000     1.171520     3
    HGA1    CG311    SG311    CG321     9     0.000000     1.171520     3
    HGA1    CG311    SG311    CG331     9     0.000000     1.171520     3
    HGA1    CG311    SG311     HGP3     9     0.000000     0.836800     3
    HGA1    CG311    SG3O1    OG2P1     9     0.000000     0.794960     3
    HGA1    CG311    SG3O2   CG2R61     9     0.000000     0.000000     3
    HGA1    CG311    SG3O2    CG311     9     0.000000     0.502080     3
    HGA1    CG311    SG3O2    CG321     9     0.000000     0.502080     3
    HGA1    CG311    SG3O2    CG331     9     0.000000     0.502080     3
    HGA1    CG311    SG3O2    NG321     9     0.000000     0.669440     3
    HGA1    CG311    SG3O2    OG2P1     9     0.000000     0.669440     3
    HGA1    CG311    SG3O3    CG311     9     0.000000     0.836800     3
    HGA1    CG311    SG3O3    CG321     9     0.000000     0.000000     3
    HGA1    CG311    SG3O3    CG331     9     0.000000     0.836800     3
    HGA1    CG311    SG3O3    OG2P1     9     0.000000     0.000000     3
    HGA1    CG311    CG2O1      NH1     9     0.000000     0.000000     1
    HGA1    CG311    CG2O1        N     9     0.000000     0.000000     1
    HGA1    CG311      CT1        C     9     0.000000     0.836800     3
    HGA1    CG311     CTD1        C     9     0.000000     0.836800     3
    HGA1    CG314    CG314     HGA1     9     0.000000     0.836800     3
    HGA1    CG314    CG321    CG2D1     9     0.000000     0.836800     3
    HGA1    CG314    CG321   CG2DC1     9     0.000000     0.836800     3
    HGA1    CG314    CG321   CG2DC2     9     0.000000     0.836800     3
    HGA1    CG314    CG321    CG2O1     9     0.000000     0.836800     3
    HGA1    CG314    CG321    CG2O3     9     0.000000     0.836800     3
    HGA1    CG314    CG321    CG2O5     9     0.000000     0.836800     3
    HGA1    CG314    CG321   CG2R51     9     0.000000     0.836800     3
    HGA1    CG314    CG321   CG2R52     9     0.000000     0.836800     3
    HGA1    CG314    CG321   CG2R61     9     0.000000     0.167360     3
    HGA1    CG314    CG321    CG311     9     0.000000     0.815880     3
    HGA1    CG314    CG321    CG312     9     0.000000     0.000000     3
    HGA1    CG314    CG321    CG314     9     0.000000     0.836800     3
    HGA1    CG314    CG321    CG321     9     0.000000     0.815880     3
    HGA1    CG314    CG321    CG322     9     0.000000     0.209200     3
    HGA1    CG314    CG321    CG324     9     0.000000     0.836800     3
    HGA1    CG314    CG321    CG331     9     0.000000     0.815880     3
    HGA1    CG314    CG321    NG2S0     9     0.000000     0.836800     3
    HGA1    CG314    CG321    NG2S1     9     0.000000     0.836800     3
    HGA1    CG314    CG321    NG301     9     0.000000     0.753120     3
    HGA1    CG314    CG321    NG311     9     0.000000     0.753120     3
    HGA1    CG314    CG321    OG311     9     0.000000     0.815880     3
    HGA1    CG314    CG321   OG3C61     9     0.000000     0.836800     3
    HGA1    CG314    CG321    SG311     9     0.000000     0.815880     3
    HGA1    CG314    CG321    SG3O3     9     0.000000     0.669440     3
    HGA1    CG314    CG321    CLGA1     9     0.000000     2.079448     3
    HGA1    CG314    CG321     HGA2     9     0.000000     0.815880     3
    HGA1    CG314    CG324    NG3P1     9     0.000000     0.836800     3
    HGA1    CG314    CG324    NG3P2     9     0.000000     0.836800     3
    HGA1    CG314    CG324     HGA2     9     0.000000     0.836800     3
    HGA1    CG314    CG331     HGA3     9     0.000000     0.815880     3
    HGA1    CG314   CG3C51   CG3C52     9     0.000000     0.669440     3
    HGA1    CG314   CG3C51   OG3C51     9     0.000000     0.669440     3
    HGA1    CG314   CG3C51     HGA1     9     0.000000     0.669440     3
    HGA1    CG314   CG3RC1   CG3C52     9     0.000000     0.836800     3
    HGA1    CG314   CG3RC1   CG3RC1     9     0.000000     0.627600     3
    HGA1    CG314   CG3RC1     HGA1     9     0.000000     0.627600     3
    HGA1    CG314    NG2P1    CG2N1     9   180.000000     0.000000     6
    HGA1    CG314    NG2P1    CG314     9     0.000000     0.000000     3
    HGA1    CG314    NG2P1     HGP2     9   180.000000     0.000000     6
    HGA1    CG314   NG2R52   CG2R51     9   180.000000     0.000000     3
    HGA1    CG314   NG2R52   CG2R53     9   180.000000     0.000000     3
    HGA1    CG314   NG2R61   CG2R62     9     0.000000     0.000000     3
    HGA1    CG314    NG311    CG2N1     9   180.000000     0.000000     3
    HGA1    CG314    NG311    CG311     9     0.000000     0.000000     3
    HGA1    CG314    NG311    CG321     9     0.000000     0.000000     3
    HGA1    CG314    NG311    CG331     9     0.000000     0.000000     3
    HGA1    CG314    NG311   HGPAM1     9     0.000000     0.209200     3
    HGA1    CG314    NG3P1   CG2R61     9     0.000000     0.000000     3
    HGA1    CG314    NG3P1    CG314     9     0.000000     0.418400     3
    HGA1    CG314    NG3P1    CG324     9     0.000000     0.418400     3
    HGA1    CG314    NG3P1    CG334     9     0.000000     0.418400     3
    HGA1    CG314    NG3P1     HGP2     9     0.000000     0.418400     3
    HGA1    CG314    NG3P2    CG301     9     0.000000     0.000000     3
    HGA1    CG314    NG3P2    CG314     9     0.000000     0.418400     3
    HGA1    CG314    NG3P2    CG324     9     0.000000     0.418400     3
    HGA1    CG314    NG3P2   CG3C50     9     0.000000     0.000000     3
    HGA1    CG314    NG3P2     HGP2     9     0.000000     0.418400     3
    HGA1    CG314    NG3P3     HGP2     9     0.000000     0.418400     3
    HGA1    CG314    OG311     HGP1     9     0.000000     0.000000     3
    HGA1    CG314   OG3C61    CG321     9     0.000000     0.836800     3
    HGA1    CG314    SG311    CG321     9     0.000000     1.171520     3
    HGA1    CG314    SG311    CG331     9     0.000000     1.171520     3
    HGA1    CG321    NG2S1    CG2O1     9     0.000000     0.000000     1
    HGA1    CG321    NG2S1     HGP1     9     0.000000     0.000000     1
    HGA1   CG3C31   CG3C31     HGA1     9   180.000000     0.836800     5
    HGA1   CG3C31   CG3C31     HGA2     9   180.000000     0.836800     5
    HGA1   CG3C31   CG3C50   CG2RC0     9     0.000000     0.000000     1
    HGA1   CG3C31   CG3C50   CG2RC0     9     0.000000     0.000000     3
    HGA1   CG3C31   CG3C50   CG3C52     9     0.000000     0.000000     1
    HGA1   CG3C31   CG3C50   CG3C52     9     0.000000     0.000000     3
    HGA1   CG3C31   CG3C50    OG311     9     0.000000     0.000000     3
    HGA1   CG3C31   CG3C51   CG3C51     9     0.000000     0.000000     1
    HGA1   CG3C31   CG3C51   CG3C51     9     0.000000     0.000000     3
    HGA1   CG3C31   CG3C51   OG3C51     9     0.000000     0.000000     3
    HGA1   CG3C31   CG3C51     HGA1     9     0.000000     0.000000     3
    HGA1   CG3C31   CG3RC1   CG2RC0     9     0.000000     0.000000     3
    HGA1   CG3C31   CG3RC1   CG3C52     9     0.000000     0.836800     3
    HGA1   CG3C31   CG3RC1   CG3RC1     9     0.000000     0.627600     3
    HGA1   CG3C31   CG3RC1     HGA1     9     0.000000     0.627600     3
    HGA1   CG3C31   NG2R52   CG2R53     9   180.000000     0.000000     3
    HGA1   CG3C31   NG2R52   CG2RC0     9   180.000000     0.000000     6
    HGA1   CG3C31    NG2S0    CG2O1     9   180.000000     0.000000     3
    HGA1   CG3C31    NG2S0    CG311     9     0.000000     0.000000     3
    HGA1   CG3C31    NG321   HGPAM2     9     0.000000     0.000000     3
    HGA1   CG3C31    NG3P2   CG3C31     9     0.000000     0.000000     3
    HGA1   CG3C31    NG3P2     HGP2     9     0.000000     0.000000     3
    HGA1   CG3C31    NG3P3     HGP2     9     0.000000     0.000000     3
    HGA1   CG3C31    OG301    CG331     9     0.000000     0.000000     1
    HGA1   CG3C31    OG301    CG331     9   180.000000     0.000000     2
    HGA1   CG3C31    OG301    CG331     9     0.000000     0.000000     3
    HGA1   CG3C31   OG3C31   CG3C31     9     0.000000     2.677760     5
    HGA1   CG3C31   OG3C31   CG3C31     9   180.000000     3.389040     6
    HGA1   CG3C41   CG3C41     HGA1     9     0.000000     0.000000     3
    HGA1   CG3C41   CG3C41     HGA2     9     0.000000     0.000000     3
    HGA1   CG3C41   CG3RC1    CG321     9     0.000000     0.000000     3
    HGA1   CG3C41   CG3RC1    CG324     9     0.000000     0.000000     3
    HGA1   CG3C41   CG3RC1   CG3RC1     9     0.000000     0.000000     3
    HGA1   CG3C41   CG3RC1   NG2R43     9     0.000000     0.000000     3
    HGA1   CG3C41   CG3RC1    SG311     9   180.000000     0.000000     3
    HGA1   CG3C41   CG3RC1     HGA1     9     0.000000     0.000000     3
    HGA1   CG3C41   NG2R43   CG2R53     9     0.000000     2.384880     3
    HGA1   CG3C41   NG2R43     HGP1     9     0.000000     0.000000     3
    HGA1   CG3C41   NG2R51   CG2R53     9     0.000000     0.000000     3
    HGA1   CG3C41   NG2R51   CG2RC0     9     0.000000     0.000000     3
    HGA1   CG3C41    NG321   HGPAM2     9   180.000000     0.000000     1
    HGA1   CG3C41    NG321   HGPAM2     9     0.000000     0.000000     3
    HGA1   CG3C41    NG3P2   CG3C41     9     0.000000     0.000000     3
    HGA1   CG3C41    NG3P2     HGP2     9     0.000000     0.000000     3
    HGA1   CG3C41    NG3P3     HGP2     9     0.000000     0.000000     3
    HGA1   CG3C41    SG3O2    CG331     9     0.000000     0.000000     3
    HGA1   CG3C41    SG3O2    OG2P1     9     0.000000     0.000000     3
    HGA1   CG3C51   CG3C51     HGA1     9     0.000000     0.794960     3
    HGA1   CG3C51   CG3C51     HGA6     9     0.000000     0.794960     3
    HGA1   CG3C51   CG3C52    CG2D1     9     0.000000     0.000000     3
    HGA1   CG3C51   CG3C52    CG2O5     9     0.000000     0.000000     3
    HGA1   CG3C51   CG3C52   CG2R51     9     0.000000     0.585760     3
    HGA1   CG3C51   CG3C52   CG2R53     9     0.000000     0.000000     3
    HGA1   CG3C51   CG3C52   CG2RC0     9     0.000000     0.000000     3
    HGA1   CG3C51   CG3C52   CG3C50     9     0.000000     0.794960     3
    HGA1   CG3C51   CG3C52   CG3C51     9     0.000000     0.794960     3
    HGA1   CG3C51   CG3C52   CG3C52     9     0.000000     0.794960     3
    HGA1   CG3C51   CG3C52   CG3C53     9     0.000000     0.794960     3
    HGA1   CG3C51   CG3C52   CG3C54     9     0.000000     0.794960     3
    HGA1   CG3C51   CG3C52   CG3RC1     9     0.000000     0.627600     3
    HGA1   CG3C51   CG3C52   NG2R51     9     0.000000     0.000000     3
    HGA1   CG3C51   CG3C52   NG2R53     9   180.000000     0.000000     3
    HGA1   CG3C51   CG3C52   NG2R57     9     0.000000     0.000000     3
    HGA1   CG3C51   CG3C52    NG2S0     9     0.000000     0.585760     3
    HGA1   CG3C51   CG3C52   NG3C51     9     0.000000     0.000000     3
    HGA1   CG3C51   CG3C52   OG3C51     9     0.000000     0.794960     3
    HGA1   CG3C51   CG3C52    SG311     9     0.000000     4.049275     3
    HGA1   CG3C51   CG3C52    SG3O2     9     0.000000     0.000000     3
    HGA1   CG3C51   CG3C52     HGA2     9     0.000000     0.794960     3
    HGA1   CG3C51   CG3C53   CG2R51     9     0.000000     0.585760     3
    HGA1   CG3C51   CG3C53    CG321     9     0.000000     0.794960     3
    HGA1   CG3C51   CG3C53    CG331     9     0.000000     0.794960     3
    HGA1   CG3C51   CG3C53   CG3C52     9     0.000000     0.794960     3
    HGA1   CG3C51   CG3C53   CG3C54     9     0.000000     0.836800     3
    HGA1   CG3C51   CG3C53   CG3RC1     9     0.000000     0.627600     3
    HGA1   CG3C51   CG3C53   NG2R52     9     0.000000     1.255200     3
    HGA1   CG3C51   CG3C53   NG2R61     9     0.000000     0.815880     3
    HGA1   CG3C51   CG3C53    NG3P1     9     0.000000     0.585760     3
    HGA1   CG3C51   CG3C53    NG3P2     9     0.000000     0.585760     3
    HGA1   CG3C51   CG3C53    NG3P3     9     0.000000     0.585760     3
    HGA1   CG3C51   CG3C53   OG3C51     9     0.000000     0.815880     3
    HGA1   CG3C51   CG3C53     HGA1     9     0.000000     0.815880     3
    HGA1   CG3C51   CG3C54    NG2P1     9     0.000000     0.000000     3
    HGA1   CG3C51   CG3C54    NG3P2     9     0.000000     0.585760     3
    HGA1   CG3C51   CG3C54     HGA2     9     0.000000     0.794960     3
    HGA1   CG3C51   CG3RC1   CG2R52     9     0.000000     0.000000     3
    HGA1   CG3C51   CG3RC1   CG2R57     9     0.000000     0.000000     3
    HGA1   CG3C51   CG3RC1   CG2RC0     9     0.000000     0.000000     3
    HGA1   CG3C51   CG3RC1    CG311     9     0.000000     0.209200     3
    HGA1   CG3C51   CG3RC1    CG321     9     0.000000     0.815880     3
    HGA1   CG3C51   CG3RC1    CG331     9     0.000000     0.209200     3
    HGA1   CG3C51   CG3RC1   CG3C31     9     0.000000     0.815880     3
    HGA1   CG3C51   CG3RC1   CG3C51     9     0.000000     0.627600     3
    HGA1   CG3C51   CG3RC1   CG3C52     9     0.000000     0.627600     3
    HGA1   CG3C51   CG3RC1   CG3RC1     9     0.000000     0.627600     3
    HGA1   CG3C51   CG3RC1    NG2S0     9     0.000000     0.627600     3
    HGA1   CG3C51   CG3RC1   OG3C31     9     0.000000     1.506240     3
    HGA1   CG3C51   CG3RC1   OG3C51     9     0.000000     0.000000     3
    HGA1   CG3C51   CG3RC1     HGA1     9     0.000000     0.627600     3
    HGA1   CG3C51   NG2R50   CG2R53     9     0.000000     2.510400     3
    HGA1   CG3C51   NG2R50   NG2R50     9     0.000000     0.000000     3
    HGA1   CG3C51   NG2R51   CG2R51     9   180.000000     1.046000     2
    HGA1   CG3C51   NG2R51   CG2R53     9   180.000000     1.046000     2
    HGA1   CG3C51   NG2R51   CG2R53     9     0.000000     0.815880     3
    HGA1   CG3C51   NG2R51   CG2RC0     9   180.000000     1.046000     2
    HGA1   CG3C51   NG2R51   NG2R50     9   180.000000     0.000000     2
    HGA1   CG3C51   NG2R53   CG2R53     9     0.000000     0.000000     3
    HGA1   CG3C51   NG2R53    CG331     9     0.000000     0.000000     3
    HGA1   CG3C51   NG2R53   CG3C52     9     0.000000     0.000000     3
    HGA1   CG3C51   NG2R53     HGP1     9   180.000000     0.000000     3
    HGA1   CG3C51   NG2R57   CG2R57     9   180.000000     0.000000     2
    HGA1   CG3C51   NG2R57   CG3C52     9   180.000000     0.000000     2
    HGA1   CG3C51   NG2R61   CG2R62     9     0.000000     0.815880     3
    HGA1   CG3C51   NG2R61   CG2R63     9     0.000000     0.815880     3
    HGA1   CG3C51    NG2S0    CG2O1     9     0.000000     3.347200     3
    HGA1   CG3C51    NG2S0   CG2RC0     9     0.000000     0.000000     3
    HGA1   CG3C51    NG2S0    CG321     9     0.000000     0.000000     3
    HGA1   CG3C51    NG2S0   CG3C52     9     0.000000     0.418400     3
    HGA1   CG3C51    NG2S0   CG3RC1     9     0.000000     0.418400     3
    HGA1   CG3C51    NG2S1    CG2O1     9   180.000000     8.529921     3
    HGA1   CG3C51    NG2S1     HGP1     9     0.000000     1.140140     3
    HGA1   CG3C51    NG2S3      PG1     9     0.000000     0.627600     3
    HGA1   CG3C51    NG2S3     HGP1     9     0.000000     0.041840     3
    HGA1   CG3C51    NG301   CG2D1O     9     0.000000     0.815880     3
    HGA1   CG3C51    NG301   CG2D2O     9     0.000000     0.815880     3
    HGA1   CG3C51    NG301    CG321     9     0.000000     0.836800     3
    HGA1   CG3C51    NG301    CG331     9     0.000000     0.836800     3
    HGA1   CG3C51    NG311    CG321     9     0.000000     0.815880     3
    HGA1   CG3C51    NG311    CG331     9     0.000000     0.815880     3
    HGA1   CG3C51    NG311   HGPAM1     9     0.000000     0.041840     3
    HGA1   CG3C51    NG321   HGPAM2     9     0.000000     0.041840     3
    HGA1   CG3C51   NG3C51   CG2R62     9     0.000000     0.000000     3
    HGA1   CG3C51   NG3C51   CG2R64     9     0.000000     0.000000     3
    HGA1   CG3C51   NG3C51   CG2RC0     9     0.000000     0.000000     3
    HGA1   CG3C51   NG3C51    CG321     9   180.000000     1.088677     3
    HGA1   CG3C51   NG3C51    CG331     9   180.000000     1.088677     3
    HGA1   CG3C51   NG3C51   CG3C51     9     0.000000     0.000000     3
    HGA1   CG3C51   NG3C51   CG3C52     9     0.000000     0.000000     3
    HGA1   CG3C51   NG3C51   NG2R50     9     0.000000     1.255200     3
    HGA1   CG3C51   NG3C51   NG2R53     9     0.000000     0.000000     3
    HGA1   CG3C51   NG3C51   OG3C51     9     0.000000     0.123428     3
    HGA1   CG3C51   NG3C51    SG3O2     9   180.000000     0.000000     3
    HGA1   CG3C51   NG3C51     HGP1     9     0.000000     0.000000     3
    HGA1   CG3C51    NG3N1    NG3N1     9     0.000000     0.000000     3
    HGA1   CG3C51    NG3N1     HGP1     9     0.000000     0.000000     3
    HGA1   CG3C51    OG301    CG311     9     0.000000     2.092000     1
    HGA1   CG3C51    OG301    CG311     9   180.000000     2.510400     3
    HGA1   CG3C51    OG301    CG331     9     0.000000     2.510400     1
    HGA1   CG3C51    OG301    CG331     9   180.000000     7.531200     2
    HGA1   CG3C51    OG301    CG331     9     0.000000     2.008320     3
    HGA1   CG3C51    OG301   CG3C51     9     0.000000     1.255200     1
    HGA1   CG3C51    OG301   CG3C51     9   180.000000     3.347200     2
    HGA1   CG3C51    OG301   CC3162     9     0.000000     2.092000     1
    HGA1   CG3C51    OG301   CC3162     9   180.000000     2.510400     3
    HGA1   CG3C51    OG303      PG1     9     0.000000     0.000000     3
    HGA1   CG3C51    OG303      PG2     9     0.000000     0.000000     3
    HGA1   CG3C51    OG311     HGP1     9     0.000000     0.753120     3
    HGA1   CG3C51   OG3C51   CG2R51     9     0.000000     0.000000     3
    HGA1   CG3C51   OG3C51   CG2R53     9     0.000000     0.000000     3
    HGA1   CG3C51   OG3C51   CG2RC0     9     0.000000     1.255200     3
    HGA1   CG3C51   OG3C51   CG3C50     9     0.000000     1.255200     3
    HGA1   CG3C51   OG3C51   CG3C51     9     0.000000     1.255200     3
    HGA1   CG3C51   OG3C51   CG3C52     9     0.000000     1.255200     3
    HGA1   CG3C51   OG3C51   CG3C53     9     0.000000     0.815880     3
    HGA1   CG3C51   OG3C51   CG3RC1     9     0.000000     1.255200     3
    HGA1   CG3C51   OG3C51   NG3C51     9     0.000000     1.192440     3
    HGA1   CG3C51    SG311   CG2D1O     9   180.000000     2.589059     3
    HGA1   CG3C51    SG311   CG2D2O     9   180.000000     2.589059     3
    HGA1   CG3C51    SG311   CG2R53     9   180.000000     0.000000     3
    HGA1   CG3C51    SG311   CG2RC0     9   180.000000     0.000000     3
    HGA1   CG3C51    SG311    CG321     9     0.000000     2.518768     3
    HGA1   CG3C51    SG311   CG3C52     9     0.000000     1.171520     3
    HGA1   CG3C51    SG3O1    OG2P1     9     0.000000     0.000000     3
    HGA1   CG3C51    SG3O2   CG3C52     9     0.000000     0.000000     3
    HGA1   CG3C51    SG3O2    OG2P1     9     0.000000     0.000000     3
    HGA1   CG3C51    CG2O1      NH1     9   180.000000     1.673600     1
    HGA1   CG3C51    CG2O1      NH1     9     0.000000     2.510400     2
    HGA1   CG3C51    CG2O1        N     9     0.000000     0.000000     1
    HGA1   CG3C51      CT1        C     9     0.000000     1.730502     3
    HGA1   CG3C51      CT1      NH1     9   180.000000     1.251434     3
    HGA1   CG3C53   CG3C54   NG2R52     9     0.000000     1.255200     3
    HGA1   CG3C53   CG3C54    NG3P2     9     0.000000     0.585760     3
    HGA1   CG3C53   CG3C54     HGA2     9     0.000000     0.585760     3
    HGA1   CG3C53   CG3RC1   CG2R53     9     0.000000     0.000000     3
    HGA1   CG3C53   CG3RC1    CG324     9     0.000000     0.000000     3
    HGA1   CG3C53   CG3RC1   CG3C41     9     0.000000     0.000000     3
    HGA1   CG3C53   CG3RC1   CG3C52     9     0.000000     0.627600     3
    HGA1   CG3C53   CG3RC1   CG3RC1     9     0.000000     0.627600     3
    HGA1   CG3C53   CG3RC1   OG3C31     9     0.000000     1.924640     3
    HGA1   CG3C53   CG3RC1   OG3C51     9     0.000000     0.000000     3
    HGA1   CG3C53   CG3RC1    SG311     9   180.000000     0.000000     3
    HGA1   CG3C53   CG3RC1     HGA1     9     0.000000     0.627600     3
    HGA1   CG3C53   NG2R52   CG2R51     9   180.000000     0.000000     3
    HGA1   CG3C53   NG2R52   CG2R53     9   180.000000     0.000000     3
    HGA1   CG3C53   NG2R52   CG2RC0     9   180.000000     0.000000     3
    HGA1   CG3C53   NG2R52     HGP2     9     0.000000     0.000000     3
    HGA1   CG3C53   NG2R61   CG2R62     9     0.000000     0.815880     3
    HGA1   CG3C53   NG3C51   CG2RC0     9     0.000000     0.000000     3
    HGA1   CG3C53   NG3C51     HGP1     9     0.000000     0.000000     3
    HGA1   CG3C53    NG3P1    CG324     9     0.000000     0.000000     3
    HGA1   CG3C53    NG3P1     HGP2     9     0.000000     0.000000     3
    HGA1   CG3C53    NG3P2    CG324     9     0.000000     0.209200     3
    HGA1   CG3C53    NG3P2    CG334     9     0.000000     0.209200     3
    HGA1   CG3C53    NG3P2   CG3C53     9     0.000000     0.334720     3
    HGA1   CG3C53    NG3P2   CG3C54     9     0.000000     0.334720     3
    HGA1   CG3C53    NG3P2     HGP2     9     0.000000     0.334720     3
    HGA1   CG3C53    NG3P3     HGP2     9     0.000000     0.334720     3
    HGA1   CG3C53   OG3C51   CG3C51     9     0.000000     0.815880     3
    HGA1   CG3C53    SG311   CG3C52     9     0.000000     1.171520     3
    HGA1   CG3RC1   CG3RC1     HGA1     9     0.000000     0.627600     3
    HGA1   CG3RC1   NG2R43   CG2D1O     9     0.000000     0.000000     3
    HGA1   CG3RC1   NG2R43   CG2D2O     9     0.000000     0.000000     3
    HGA1   CG3RC1   NG2R43   CG2R53     9     0.000000     0.000000     3
    HGA1   CG3RC1   NG2R43    CG321     9     0.000000     0.000000     3
    HGA1   CG3RC1   NG2R50   NG2R50     9     0.000000     0.000000     3
    HGA1   CG3RC1   NG2R52   CG2R53     9   180.000000     0.000000     3
    HGA1   CG3RC1   NG2R52     HGP2     9     0.000000     0.000000     3
    HGA1   CG3RC1   NG2R53   CG2R53     9     0.000000     0.000000     3
    HGA1   CG3RC1   NG2R53    CG301     9     0.000000     0.000000     3
    HGA1   CG3RC1   NG2R53    CG301     9     0.000000     0.000000     4
    HGA1   CG3RC1   NG2R53    CG331     9     0.000000     0.000000     3
    HGA1   CG3RC1   NG2R53    CG331     9     0.000000     0.000000     4
    HGA1   CG3RC1   NG2R53     HGP1     9   180.000000     0.000000     3
    HGA1   CG3RC1    NG2S0    CG2O1     9     0.000000     0.000000     3
    HGA1   CG3RC1    NG2S0    CG2O3     9     0.000000     0.000000     3
    HGA1   CG3RC1    NG2S0    CG2O6     9     0.000000     0.000000     3
    HGA1   CG3RC1    NG2S0   CG2RC0     9     0.000000     0.000000     3
    HGA1   CG3RC1    NG2S0   CG3C41     9     0.000000     0.000000     3
    HGA1   CG3RC1    NG2S0   CG3C52     9     0.000000     0.000000     3
    HGA1   CG3RC1    NG2S0   CG3RC1     9     0.000000     0.000000     3
    HGA1   CG3RC1    NG301    CG321     9     0.000000     0.000000     3
    HGA1   CG3RC1    NG301    CG331     9     0.000000     0.000000     3
    HGA1   CG3RC1   NG3C51    CG331     9   180.000000     0.000000     3
    HGA1   CG3RC1   NG3C51   NG2R50     9     0.000000     0.000000     3
    HGA1   CG3RC1    NG3N1    NG2D1     9     0.000000     0.000000     3
    HGA1   CG3RC1    NG3N1     HGP1     9     0.000000     0.000000     3
    HGA1   CG3RC1    NG3P1    CG334     9     0.000000     0.000000     3
    HGA1   CG3RC1    NG3P1   CG3RC1     9     0.000000     0.000000     3
    HGA1   CG3RC1    NG3P1     HGP2     9     0.000000     0.000000     3
    HGA1   CG3RC1    NG3P2   CG3RC1     9     0.000000     0.000000     3
    HGA1   CG3RC1    NG3P2     HGP2     9     0.000000     0.000000     3
    HGA1   CG3RC1   OG3C31   CG3RC1     9   180.000000     5.020800     3
    HGA1   CG3RC1   OG3C51   CG2R53     9     0.000000     0.000000     3
    HGA1   CG3RC1   OG3C51   CG3C50     9     0.000000     0.000000     3
    HGA1   CG3RC1   OG3C51   CG3C51     9     0.000000     1.255200     3
    HGA1   CG3RC1   OG3C51   CG3C52     9     0.000000     1.255200     3
    HGA1   CG3RC1   OG3C61    CG301     9     0.000000     0.000000     1
    HGA1   CG3RC1   OG3C61    CG301     9   180.000000     0.000000     3
    HGA1   CG3RC1    SG311    CG2N2     9   180.000000     0.000000     3
    HGA1   CG3RC1    SG311    CG321     9     0.000000     0.000000     3
    HGA1   CG3RC1    SG311   CG3C52     9     0.000000     0.000000     3
    HGA1   CG3RC1    SG311   CG3RC1     9     0.000000     0.000000     3
    HGA1   CG3RC1    SG3O2    CG321     9     0.000000     0.000000     3
    HGA1   CG3RC1    SG3O2   CG3RC1     9     0.000000     0.000000     3
    HGA1   CG3RC1    SG3O2    OG2P1     9     0.000000     0.000000     3
    HGA1   CG3RC1    SG3O3   CG2R52     9     0.000000     0.000000     3
    HGA1   CG3RC1    SG3O3   CG3C52     9     0.000000     0.000000     3
    HGA1   CG3RC1    SG3O3   NG3C51     9     0.000000     0.000000     3
    HGA1   CG3RC1    SG3O3    OG2P1     9     0.000000     0.000000     3
    HGA1     CRL1      OSL       CL     9     0.000000     0.000000     3
   CLGA1    CG311    CG331     HGA3     9     0.000000     1.046000     3
   CLGA1    CG321    CG331     HGA3     9     0.000000     1.255200     3
   CLGA1    CG321    CG311      CT1     9     0.000000     5.975170     3
   BRGA2    CG311    CG331     HGA3     9     0.000000     1.087840     3
    FGA2    CG312    CG312     FGA2     9     0.000000     1.840960     3
    FGA2    CG312    CG321    CG314     9   180.000000     0.209200     1
    FGA2    CG312    CG321    CG314     9   180.000000     0.794960     3
    FGA2    CG312    CG321    CG321     9   180.000000     3.179840     1
    FGA2    CG312    CG321    CG321     9     0.000000     1.338880     3
    FGA2    CG312    CG321    CG324     9   180.000000     0.000000     1
    FGA2    CG312    CG321    CG324     9   180.000000     0.376560     3
    FGA2    CG312    CG321    CG331     9   180.000000     3.196576     1
    FGA2    CG312    CG321    CG331     9     0.000000     1.356871     3
    FGA2    CG312    CG321    NG301     9   180.000000     0.920480     1
    FGA2    CG312    CG321    NG301     9     0.000000     7.447520     3
    FGA2    CG312    CG321    NG311     9   180.000000    10.418160     1
    FGA2    CG312    CG321    NG311     9     0.000000     2.845120     3
    FGA2    CG312    CG321     HGA2     9     0.000000     0.744752     3
    FGA2    CG312    CG322    CG321     9   180.000000     4.853440     1
    FGA2    CG312    CG322    CG321     9   180.000000     0.000000     3
    FGA2    CG312    CG322    CG331     9   180.000000     2.259360     1
    FGA2    CG312    CG322    CG331     9   180.000000     5.648400     3
    FGA2    CG312    CG322     FGA1     9   180.000000     0.000000     3
    FGA2    CG312    CG324    NG2P1     9   180.000000     1.464400     3
    FGA2    CG312    CG324    NG3P1     9   180.000000     0.041840     3
    FGA2    CG312    CG324     HGA2     9     0.000000     0.753120     3
    FGA2    CG312    CG331     HGA3     9     0.000000     0.744752     3
    FGA2    CG312   NG2R61   CG2R62     9     0.000000     1.380720     1
    FGA2    CG312   NG2R61   CG2R62     9     0.000000     0.209200     6
    FGA2    CG312   NG2R61   CG2R63     9   180.000000     1.924640     2
    FGA2    CG312   NG2R61   CG2R63     9   180.000000     4.058480     6
    FGA2    CG312   OG3R60   CG2R61     9     0.000000     0.878640     3
    FGA2    CG312      PG1    OG2P1     9     0.000000     0.000000     3
    FGA2    CG312      PG1    OG311     9     0.000000     0.418400     3
    FGA2    CG312      PG2    OG2P1     9     0.000000     0.000000     3
    FGA2    CG312    SG311    CG321     9     0.000000     2.777339     1
    FGA2    CG312    SG311    CG321     9     0.000000     1.466074     2
    FGA2    CG312    SG311    CG321     9     0.000000     1.850165     3
    FGA2   CG3C31   CG3RC1    CG321     9   180.000000    13.681680     2
    FGA2   CG3C31   CG3RC1    CG321     9   180.000000     0.878640     3
    FGA2   CG3C31   CG3RC1    CG324     9     0.000000     0.000000     3
    FGA2   CG3C31   CG3RC1    CG331     9   180.000000    13.639840     2
    FGA2   CG3C31   CG3RC1    CG331     9   180.000000     0.000000     3
    FGA2   CG3C31   CG3RC1   CG3RC1     9   180.000000    20.250560     3
    FGA2   CG3C31   CG3RC1     HGA1     9     0.000000     0.000000     3
    FGA2   CG3C41   CG3C41     HGA2     9     0.000000     0.000000     3
    FGA2   CG3C41   CG3RC1   CG3C52     9     0.000000     3.765600     3
    FGA2   CG3C41   CG3RC1   CG3C52     9   180.000000     2.384880     6
    FGA2   CG3C41   CG3RC1   CG3RC1     9   180.000000     4.560560     3
    FGA2   CG3C41   CG3RC1     HGA1     9     0.000000     0.000000     3
    FGA2   CG3C50   CG3C51    CG331     9     0.000000     0.585760     3
    FGA2   CG3C50   CG3C51    CG331     9   180.000000     0.167360     6
    FGA2   CG3C50   CG3C51   CG3C52     9     0.000000     0.836800     3
    FGA2   CG3C50   CG3C51     HGA1     9     0.000000     0.753120     3
    FGA2   CG3C50   CG3C52   NG3C51     9     0.000000     2.635920     3
    FGA2   CG3C50   CG3C52   NG3C51     9     0.000000     1.129680     6
    FGA2   CG3C50   CG3C52     HGA2     9     0.000000     0.753120     3
    HGA7    CG312    CG321    CG331     9     0.000000     0.753120     3
    HGA7    CG312    CG321     HGA2     9     0.000000     0.744752     3
    HGA7    CG312    CG331     HGA3     9     0.000000     0.744752     3
    HGA7    CG312   NG2R61   CG2R62     9   180.000000     4.895280     2
    HGA7    CG312   NG2R61   CG2R62     9   180.000000     3.723760     3
    HGA7    CG312   NG2R61   CG2R63     9     0.000000     0.041840     2
    HGA7    CG312   NG2R61   CG2R63     9     0.000000     2.803280     6
    HGA7    CG312    SG311    CG321     9     0.000000     0.289951     3
    HGP5    CG314    CG321    CG321     9     0.000000     0.815880     3
    HGP5    CG314    CG321    NG2S1     9   180.000000    10.167120     3
    HGP5    CG314    CG321    NG2S1     9     0.000000     3.430880     4
    HGP5    CG314    CG321    OG311     9     0.000000     0.836800     3
    HGP5    CG314    CG321     HGA2     9     0.000000     0.815880     3
    HGP5    CG314    CG331     HGA3     9     0.000000     0.669440     3
    HGP5    CG314    NG3P0    CG314     9     0.000000     1.087840     3
    HGP5    CG314    NG3P0    CG324     9     0.000000     1.087840     3
    HGP5    CG314    NG3P0    CG334     9     0.000000     1.087840     3
    HGP5    CG314    NG3P0    OG312     9     0.000000     0.920480     3
    HGP5    CG324    CG331     HGA3     9     0.000000     0.669440     3
    HGP5    CG324    NG3P0   CG2R53     9     0.000000     0.962320     3
    HGP5    CG324    NG3P0   CG2R53     9     0.000000     0.962320     6
    HGP5    CG324    NG3P0    CG314     9     0.000000     1.087840     3
    HGP5    CG324    NG3P0    CG324     9     0.000000     1.087840     3
    HGP5    CG324    NG3P0    CG334     9     0.000000     1.087840     3
    HGP5    CG324    NG3P0   CG3C53     9     0.000000     1.087840     3
    HGP5    CG324    NG3P0    OG312     9     0.000000     1.464400     3
    HGP5    CG324   OG3C61    CG301     9   180.000000     1.004160     3
    HGP5    CG334    NG3P0   CG2R61     9     0.000000     0.794960     3
    HGP5    CG334    NG3P0    CG301     9     0.000000     0.962320     3
    HGP5    CG334    NG3P0    CG314     9     0.000000     1.087840     3
    HGP5    CG334    NG3P0    CG324     9     0.000000     1.087840     3
    HGP5    CG334    NG3P0    CG334     9     0.000000     1.087840     3
    HGP5    CG334    NG3P0   CG3C54     9     0.000000     1.087840     3
    HGP5    CG334    NG3P0   CG3RC1     9     0.000000     1.213360     3
    HGP5    CG334    NG3P0    OG311     9     0.000000     0.418400     3
    HGP5    CG334    NG3P0    OG312     9     0.000000     1.464400     3
    HGP5   CG3C53   NG2R50   NG2R50     9     0.000000     2.719600     3
    HGP5   CG3C53    NG3P0   CG2R53     9     0.000000     1.422560     3
    HGP5   CG3C53    NG3P0   CG2R53     9   180.000000     2.301200     4
    HGP5   CG3C53    NG3P0    CG324     9   180.000000     4.184000     3
    HGP5   CG3C53    NG3P0    CG324     9     0.000000     0.585760     6
    HGP5   CG3C54    NG3P0    CG334     9     0.000000     2.552240     3
    HGP5   CG3C54    NG3P0    CG334     9   180.000000     1.046000     6
    HGP5   CG3C54    NG3P0   CG3C54     9   180.000000     1.966480     3
    HGP5   CG3C54    NG3P0   CG3C54     9     0.000000     0.962320     6
    HGP5   CG3C54    NG3P0   CG3RC1     9   180.000000     1.966480     3
    HGP5   CG3C54    NG3P0   CG3RC1     9   180.000000     0.460240     6
    HGP5   CG3RC1    NG3P0    CG334     9     0.000000     0.083680     2
    HGP5   CG3RC1    NG3P0    CG334     9   180.000000     0.041840     3
    HGP5   CG3RC1    NG3P0   CG3C54     9     0.000000     0.041840     3
   SG301    CG321    CG321     HGA2     9     0.000000     0.041840     3
   SG301    CG321    CG331     HGA3     9     0.000000     0.041840     3
   SG301    CG321      CT1        C     9     0.000000     0.836800     3
   SG301    OG301    OG311     HGP1     9     0.000000     2.155597     1
   SG301    OG301    OG311     HGP1     9     0.000000     3.584851     2
   SG301    OG301    OG311     HGP1     9     0.000000     0.820064     3
   BRGA1    CG321    CG321     HGA2     9     0.000000     1.255200     3
   BRGA1    CG321    CG331     HGA3     9     0.000000     1.255200     3
    HGA2    CG321    CG321     HGA2     9     0.000000     0.920480     3
    HGA2    CG321    CG322    CG2O1     9     0.000000     0.000000     3
    HGA2    CG321    CG322    CG2O3     9     0.000000     0.690778     3
    HGA2    CG321    CG322    CG2O5     9     0.000000     0.000000     3
    HGA2    CG321    CG322   CG2R61     9     0.000000     0.000000     3
    HGA2    CG321    CG322    CG311     9     0.000000     0.753120     3
    HGA2    CG321    CG322    CG312     9     0.000000     0.000000     3
    HGA2    CG321    CG322    CG321     9     0.000000     0.753120     3
    HGA2    CG321    CG322    CG331     9     0.000000     0.753120     3
    HGA2    CG321    CG322     FGA1     9     0.000000     0.774040     3
    HGA2    CG321    CG322     HGA6     9     0.000000     0.774040     3
    HGA2    CG321    CG324    NG2O1     9     0.000000     0.815880     3
    HGA2    CG321    CG324    NG2P1     9     0.000000     0.815880     3
    HGA2    CG321    CG324   NG2R52     9     0.000000     0.836800     3
    HGA2    CG321    CG324   NG2R61     9     0.000000     0.418400     3
    HGA2    CG321    CG324    NG3P0     9     0.000000     0.815880     3
    HGA2    CG321    CG324    NG3P1     9     0.000000     0.815880     3
    HGA2    CG321    CG324    NG3P2     9     0.000000     0.815880     3
    HGA2    CG321    CG324    NG3P3     9     0.000000     0.815880     3
    HGA2    CG321    CG324     HGA2     9     0.000000     0.815880     3
    HGA2    CG321    CG324     HGP5     9     0.000000     0.815880     3
    HGA2    CG321    CG331     HGA3     9     0.000000     0.669440     3
    HGA2    CG321   CG3C31    CG2O5     9     0.000000     0.000000     1
    HGA2    CG321   CG3C31    CG2O5     9     0.000000     0.000000     3
    HGA2    CG321   CG3C31   CG2R61     9     0.000000     0.000000     1
    HGA2    CG321   CG3C31   CG2R61     9     0.000000     0.000000     3
    HGA2    CG321   CG3C31    CG321     9     0.000000     0.000000     1
    HGA2    CG321   CG3C31    CG321     9     0.000000     0.000000     3
    HGA2    CG321   CG3C31   CG3C31     9     0.000000     0.041840     1
    HGA2    CG321   CG3C31   CG3C31     9     0.000000     0.083680     3
    HGA2    CG321   CG3C31    NG3P1     9     0.000000     0.000000     1
    HGA2    CG321   CG3C31    NG3P1     9     0.000000     0.000000     3
    HGA2    CG321   CG3C31    NG3P2     9     0.000000     0.000000     1
    HGA2    CG321   CG3C31    NG3P2     9     0.000000     0.000000     3
    HGA2    CG321   CG3C31   OG3C31     9     0.000000     2.092000     1
    HGA2    CG321   CG3C31   OG3C31     9     0.000000     1.129680     3
    HGA2    CG321   CG3C31    SG3O2     9     0.000000     0.000000     1
    HGA2    CG321   CG3C31    SG3O2     9     0.000000     0.000000     3
    HGA2    CG321   CG3C31     HGA1     9     0.000000     0.000000     3
    HGA2    CG321   CG3C41    CG2O4     9     0.000000     0.000000     3
    HGA2    CG321   CG3C41   CG2R53     9     0.000000     0.000000     3
    HGA2    CG321   CG3C41   CG2R61     9     0.000000     0.000000     3
    HGA2    CG321   CG3C41    CG321     9     0.000000     0.000000     3
    HGA2    CG321   CG3C41    CG324     9     0.000000     0.000000     3
    HGA2    CG321   CG3C41   CG3C41     9     0.000000     0.000000     3
    HGA2    CG321   CG3C41   NG2R43     9     0.000000     0.000000     3
    HGA2    CG321   CG3C41    NG311     9     0.000000     0.000000     3
    HGA2    CG321   CG3C41    OG301     9     0.000000     0.000000     1
    HGA2    CG321   CG3C41    OG301     9     0.000000     0.000000     3
    HGA2    CG321   CG3C41   OG3C51     9     0.000000     0.000000     1
    HGA2    CG321   CG3C41   OG3C51     9     0.000000     0.000000     3
    HGA2    CG321   CG3C41   OG3C61     9     0.000000     0.000000     1
    HGA2    CG321   CG3C41   OG3C61     9     0.000000     0.000000     3
    HGA2    CG321   CG3C41   OG3R60     9     0.000000     0.000000     1
    HGA2    CG321   CG3C41   OG3R60     9     0.000000     0.000000     3
    HGA2    CG321   CG3C41    SG311     9     0.000000     0.000000     3
    HGA2    CG321   CG3C41     HGA1     9     0.000000     0.000000     3
    HGA2    CG321   CG3C50   CG25C1     9     0.000000     0.000000     3
    HGA2    CG321   CG3C50   CG25C2     9     0.000000     0.000000     3
    HGA2    CG321   CG3C50    CG2D1     9     0.000000     0.000000     3
    HGA2    CG321   CG3C50   CG2R51     9     0.000000     0.000000     3
    HGA2    CG321   CG3C50   CG2R52     9     0.000000     0.000000     3
    HGA2    CG321   CG3C50   CG2R53     9     0.000000     0.000000     3
    HGA2    CG321   CG3C50   CG2R61     9     0.000000     0.000000     3
    HGA2    CG321   CG3C50   CG2RC0     9     0.000000     0.000000     3
    HGA2    CG321   CG3C50    CG321     9     0.000000     0.000000     3
    HGA2    CG321   CG3C50    CG324     9     0.000000     0.000000     3
    HGA2    CG321   CG3C50    CG331     9     0.000000     0.000000     3
    HGA2    CG321   CG3C50   CG3C51     9     0.000000     0.669440     3
    HGA2    CG321   CG3C50   CG3C52     9     0.000000     0.000000     3
    HGA2    CG321   CG3C50   CG3C54     9     0.000000     0.000000     3
    HGA2    CG321   CG3C50   NG2R52     9     0.000000     0.000000     3
    HGA2    CG321   CG3C50   NG2R53     9     0.000000     0.000000     3
    HGA2    CG321   CG3C50    NG301     9     0.000000     0.000000     3
    HGA2    CG321   CG3C50    NG321     9     0.000000     0.000000     3
    HGA2    CG321   CG3C50   NG3C51     9     0.000000     1.840960     3
    HGA2    CG321   CG3C50    NG3P1     9     0.000000     0.000000     3
    HGA2    CG321   CG3C50    NG3P2     9     0.000000     0.000000     3
    HGA2    CG321   CG3C50    NG3P3     9     0.000000     0.000000     3
    HGA2    CG321   CG3C50    OG311     9     0.000000     0.000000     3
    HGA2    CG321   CG3C50   OG3C51     9     0.000000     0.669440     3
    HGA2    CG321   CG3C50   OG3C61     9     0.000000     0.000000     3
    HGA2    CG321   CG3C50   OG3R60     9     0.000000     0.000000     3
    HGA2    CG321   CG3C50    SG311     9     0.000000     0.000000     3
    HGA2    CG321   CG3C51    CG2O5     9     0.000000     0.000000     3
    HGA2    CG321   CG3C51   CG2R51     9     0.000000     0.000000     3
    HGA2    CG321   CG3C51   CG2R53     9     0.000000     0.000000     3
    HGA2    CG321   CG3C51   CG3C50     9     0.000000     0.669440     3
    HGA2    CG321   CG3C51   CG3C51     9     0.000000     0.669440     3
    HGA2    CG321   CG3C51   CG3C52     9     0.000000     0.669440     3
    HGA2    CG321   CG3C51   CG3RC1     9     0.000000     0.627600     3
    HGA2    CG321   CG3C51   OG3C51     9     0.000000     0.669440     3
    HGA2    CG321   CG3C51     HGA1     9     0.000000     0.669440     3
    HGA2    CG321   CG3C53   CG3C51     9     0.000000     0.669440     3
    HGA2    CG321   CG3C53    NG3P2     9     0.000000     0.000000     3
    HGA2    CG321   CG3C53     HGA1     9     0.000000     0.669440     3
    HGA2    CG321   CG3RC1   CG25C1     9     0.000000     0.000000     3
    HGA2    CG321   CG3RC1   CG25C2     9     0.000000     0.000000     3
    HGA2    CG321   CG3RC1    CG2O5     9     0.000000     0.000000     3
    HGA2    CG321   CG3RC1   CG2R51     9     0.000000     0.000000     3
    HGA2    CG321   CG3RC1   CG2R52     9     0.000000     0.000000     3
    HGA2    CG321   CG3RC1   CG2RC0     9     0.000000     0.000000     3
    HGA2    CG321   CG3RC1    CG302     9     0.000000     0.000000     3
    HGA2    CG321   CG3RC1    CG321     9     0.000000     0.794960     3
    HGA2    CG321   CG3RC1    CG331     9     0.000000     0.794960     3
    HGA2    CG321   CG3RC1   CG3C31     9     0.000000     0.815880     3
    HGA2    CG321   CG3RC1   CG3C41     9     0.000000     0.000000     3
    HGA2    CG321   CG3RC1   CG3C50     9     0.000000     0.836800     3
    HGA2    CG321   CG3RC1   CG3C51     9     0.000000     0.815880     3
    HGA2    CG321   CG3RC1   CG3C52     9     0.000000     0.815880     1
    HGA2    CG321   CG3RC1   CG3C54     9     0.000000     0.000000     1
    HGA2    CG321   CG3RC1   CG3RC1     9     0.000000     0.627600     3
    HGA2    CG321   CG3RC1   NG2R43     9     0.000000     0.000000     3
    HGA2    CG321   CG3RC1    NG2S0     9     0.000000     0.000000     3
    HGA2    CG321   CG3RC1    NG321     9     0.000000     0.000000     1
    HGA2    CG321   CG3RC1    NG321     9     0.000000     0.000000     2
    HGA2    CG321   CG3RC1    NG321     9     0.000000     0.000000     3
    HGA2    CG321   CG3RC1    NG3P1     9     0.000000     0.000000     3
    HGA2    CG321   CG3RC1    NG3P2     9     0.000000     0.000000     3
    HGA2    CG321   CG3RC1   OG3C31     9     0.000000     0.000000     3
    HGA2    CG321   CG3RC1   OG3C51     9     0.000000     0.000000     3
    HGA2    CG321   CG3RC1    SG311     9     0.000000     0.000000     3
    HGA2    CG321   CG3RC1    SG3O2     9     0.000000     0.000000     1
    HGA2    CG321   CG3RC1     HGA1     9     0.000000     0.627600     3
    HGA2    CG321    NG1T1    NG1T1     9   180.000000     0.112968     1
    HGA2    CG321    NG2D1    CG2D1     9     0.000000     0.418400     3
    HGA2    CG321    NG2D1   CG2D1O     9     0.000000     0.418400     3
    HGA2    CG321    NG2D1   CG2D2O     9     0.000000     0.418400     3
    HGA2    CG321    NG2D1   CG2DC1     9     0.000000     0.418400     3
    HGA2    CG321    NG2D1   CG2DC2     9     0.000000     0.418400     3
    HGA2    CG321    NG2D1    CG2N2     9   180.000000     0.460240     3
    HGA2    CG321    NG2D1    CG2O1     9   180.000000     0.460240     3
    HGA2    CG321    NG2D1   CG2R64     9   180.000000     0.000000     3
    HGA2    CG321    NG2D1    NG2D1     9     0.000000     0.000000     3
    HGA2    CG321   NG2R43   CG2R53     9     0.000000     0.000000     1
    HGA2    CG321   NG2R43   CG3RC1     9     0.000000     0.000000     3
    HGA2    CG321   NG2R51   CG2R51     9     0.000000     0.000000     3
    HGA2    CG321   NG2R51   CG2R53     9     0.000000     0.000000     3
    HGA2    CG321   NG2R51   CG2R57     9     0.000000     0.000000     3
    HGA2    CG321   NG2R51   NG2R50     9     0.000000     0.000000     3
    HGA2    CG321   NG2R53   CG2R53     9     0.000000     0.000000     1
    HGA2    CG321   NG2R53   CG3RC1     9     0.000000     0.000000     3
    HGA2    CG321   NG2R61   CG2R61     9     0.000000     0.000000     3
    HGA2    CG321   NG2R61   CG2R62     9     0.000000     0.000000     3
    HGA2    CG321   NG2R61   CG2R63     9     0.000000     0.209200     6
    HGA2    CG321   NG2R61   CG2R64     9     0.000000     0.000000     3
    HGA2    CG321    NG2S0    CG2O1     9     0.000000     0.000000     3
    HGA2    CG321    NG2S0    CG2O3     9     0.000000     0.000000     3
    HGA2    CG321    NG2S0    CG2O6     9     0.000000     0.000000     3
    HGA2    CG321    NG2S0   CG2R61     9     0.000000     0.000000     1
    HGA2    CG321    NG2S0    CG301     9     0.000000     1.757280     3
    HGA2    CG321    NG2S0    CG311     9     0.000000     1.757280     3
    HGA2    CG321    NG2S0    CG321     9     0.000000     1.757280     3
    HGA2    CG321    NG2S0    CG331     9     0.000000     1.338880     3
    HGA2    CG321    NG2S0   CG3C50     9     0.000000     0.000000     3
    HGA2    CG321    NG2S0   CG3C51     9     0.000000     0.000000     3
    HGA2    CG321    NG2S0    NG3N1     9     0.000000     0.000000     3
    HGA2    CG321    NG2S0    OG301     9     0.000000     0.000000     3
    HGA2    CG321    NG2S0    OG311     9     0.000000     3.854301     3
    HGA2    CG321    NG2S0    SG3O2     9     0.000000     0.000000     3
    HGA2    CG321    NG2S0     CN7B     9     0.000000     1.338880     3
    HGA2    CG321    NG2S1    CG2O1     9     0.000000     0.000000     3
    HGA2    CG321    NG2S1    CG2O3     9     0.000000     0.000000     3
    HGA2    CG321    NG2S1    CG2O6     9     0.000000     0.000000     3
    HGA2    CG321    NG2S1     HGP1     9     0.000000     0.000000     3
    HGA2    CG321    NG2S3    CG321     9   180.000000     0.292880     2
    HGA2    CG321    NG2S3    CG321     9     0.000000     0.502080     3
    HGA2    CG321    NG2S3      PG1     9     0.000000     0.627600     3
    HGA2    CG321    NG2S3    SG3O1     9     0.000000     0.627600     3
    HGA2    CG321    NG2S3     HGP1     9     0.000000     0.041840     3
    HGA2    CG321    NG301    CG1N1     9   180.000000     0.000000     3
    HGA2    CG321    NG301   CG2D1O     9   180.000000     0.000000     3
    HGA2    CG321    NG301   CG2D2O     9   180.000000     0.000000     3
    HGA2    CG321    NG301   CG2R51     9   180.000000     0.000000     3
    HGA2    CG321    NG301   CG2R53     9   180.000000     0.000000     3
    HGA2    CG321    NG301   CG2R61     9   180.000000     0.000000     3
    HGA2    CG321    NG301   CG2R62     9   180.000000     0.000000     3
    HGA2    CG321    NG301   CG2R64     9   180.000000     0.000000     3
    HGA2    CG321    NG301    CG311     9     0.000000     0.000000     3
    HGA2    CG321    NG301    CG321     9     0.000000     0.418400     3
    HGA2    CG321    NG301    CG324     9   180.000000     0.502080     3
    HGA2    CG321    NG301    CG331     9     0.000000     0.000000     3
    HGA2    CG321    NG301   CG3C31     9     0.000000     0.418400     3
    HGA2    CG321    NG301   CG3C50     9     0.000000     3.347200     3
    HGA2    CG321    NG301   CG3C51     9     0.000000     3.347200     3
    HGA2    CG321    NG301   CG3RC1     9     0.000000     3.347200     3
    HGA2    CG321    NG301    OG301     9     0.000000     0.000000     3
    HGA2    CG321    NG301   OG3C61     9     0.000000     0.000000     3
    HGA2    CG321    NG301    SG3O2     9     0.000000     0.418400     3
    HGA2    CG321    NG311   CG2D1O     9   180.000000     0.000000     3
    HGA2    CG321    NG311   CG2D2O     9   180.000000     0.000000     3
    HGA2    CG321    NG311    CG2N2     9   180.000000     0.000000     3
    HGA2    CG321    NG311   CG2R53     9   180.000000     0.000000     3
    HGA2    CG321    NG311   CG2R61     9   180.000000     0.000000     3
    HGA2    CG321    NG311   CG2R64     9   180.000000     0.209200     3
    HGA2    CG321    NG311    CG301     9     0.000000     0.000000     3
    HGA2    CG321    NG311    CG311     9     0.000000     0.000000     3
    HGA2    CG321    NG311    CG314     9   180.000000     0.487854     3
    HGA2    CG321    NG311    CG321     9     0.000000     0.000000     3
    HGA2    CG321    NG311    CG331     9     0.000000     1.673600     3
    HGA2    CG321    NG311   CG3C31     9     0.000000     3.347200     3
    HGA2    CG321    NG311   CG3C41     9     0.000000     3.347200     3
    HGA2    CG321    NG311   CG3C50     9     0.000000     3.347200     3
    HGA2    CG321    NG311   CG3C51     9     0.000000     3.347200     3
    HGA2    CG321    NG311   CG3RC1     9     0.000000     3.347200     3
    HGA2    CG321    NG311    SG3O2     9     0.000000     0.418400     3
    HGA2    CG321    NG311     HGP1     9     0.000000     0.209200     3
    HGA2    CG321    NG311   HGPAM1     9     0.000000     0.209200     3
    HGA2    CG321    NG321   HGPAM2     9     0.000000     0.041840     3
    HGA2    CG321   NG3C51   CG2R53     9   180.000000     0.000000     3
    HGA2    CG321   NG3C51   CG2RC0     9   180.000000     0.000000     3
    HGA2    CG321   NG3C51   CG3C50     9     0.000000     0.627600     3
    HGA2    CG321   NG3C51   CG3C51     9     0.000000     0.639315     3
    HGA2    CG321   NG3C51   CG3C52     9     0.000000     0.869017     3
    HGA2    CG321    NG3N1    CG331     9     0.000000     0.000000     3
    HGA2    CG321    NG3N1    NG3N1     9     0.000000     0.000000     3
    HGA2    CG321    OG301   CG2D1O     9     0.000000     0.292880     3
    HGA2    CG321    OG301   CG2D2O     9     0.000000     0.292880     3
    HGA2    CG321    OG301   CG2R61     9     0.000000     0.397480     3
    HGA2    CG321    OG301   CG2R62     9     0.000000     0.397480     3
    HGA2    CG321    OG301    CG301     9     0.000000     1.171520     3
    HGA2    CG321    OG301    CG311     9     0.000000     1.171520     3
    HGA2    CG321    OG301    CG321     9     0.000000     1.188256     3
    HGA2    CG321    OG301    CG331     9     0.000000     1.188256     3
    HGA2    CG321    OG301    NG2D1     9     0.000000     1.350595     3
    HGA2    CG321    OG301    NG2P1     9     0.000000     0.234304     3
    HGA2    CG321    OG301    NG2S0     9     0.000000     0.000000     3
    HGA2    CG321    OG301    NG321     9     0.000000     3.568115     3
    HGA2    CG321    OG302    CG2O2     9     0.000000     0.000000     3
    HGA2    CG321    OG302    CG2O6     9     0.000000     0.000000     3
    HGA2    CG321    OG303      PG0     9     0.000000     0.000000     3
    HGA2    CG321    OG303      PG1     9     0.000000     0.000000     3
    HGA2    CG321    OG303      PG2     9     0.000000     0.000000     3
    HGA2    CG321    OG303    SG3O1     9     0.000000     0.000000     3
    HGA2    CG321    OG303    SG3O2     9     0.000000     0.000000     3
    HGA2    CG321    OG311     HGP1     9     0.000000     0.753120     3
    HGA2    CG321   OG3C61    CG301     9     0.000000     0.836800     3
    HGA2    CG321   OG3C61    CG311     9     0.000000     0.815880     3
    HGA2    CG321   OG3C61    CG314     9     0.000000     0.000000     3
    HGA2    CG321   OG3C61    CG321     9     0.000000     0.815880     3
    HGA2    CG321   OG3C61   CG3C31     9     0.000000     0.836800     3
    HGA2    CG321   OG3C61   CG3C50     9     0.000000     0.000000     3
    HGA2    CG321   OG3C61   CG3RC1     9     0.000000     0.000000     3
    HGA2    CG321   OG3C61    NG301     9     0.000000     0.000000     3
    HGA2    CG321   OG3R60   CG2D1O     9     0.000000     3.765600     3
    HGA2    CG321   OG3R60   CG2D2O     9     0.000000     3.765600     3
    HGA2    CG321   OG3R60    CG2O6     9     0.000000     0.000000     3
    HGA2    CG321   OG3R60   CG2R51     9     0.000000     0.000000     3
    HGA2    CG321   OG3R60   CG2R61     9     0.000000     0.000000     3
    HGA2    CG321   OG3R60   CG2R62     9     0.000000     0.000000     3
    HGA2    CG321      PG1    OG2P1     9     0.000000     0.418400     3
    HGA2    CG321      PG1    OG311     9     0.000000     0.418400     3
    HGA2    CG321      PG2    OG2P1     9     0.000000     0.418400     3
    HGA2    CG321    SG2P1      PG2     9     0.000000     0.306269     1
    HGA2    CG321    SG2P1      PG2     9     0.000000     0.664419     3
    HGA2    CG321    SG301    OG301     9     0.000000     1.380302     3
    HGA2    CG321    SG301    OG311     9     0.000000     1.727155     3
    HGA2    CG321    SG301    OG312     9     0.000000     0.366518     1
    HGA2    CG321    SG301    OG312     9     0.000000     1.337206     3
    HGA2    CG321    SG301    SG301     9     0.000000     0.661072     3
    HGA2    CG321    SG301    SG311     9     0.000000     0.661072     3
    HGA2    CG321    SG301    SG3O1     9     0.000000     0.837637     3
    HGA2    CG321    SG311    CG1N1     9     0.000000     1.524231     3
    HGA2    CG321    SG311    CG2N2     9     0.000000     1.506240     3
    HGA2    CG321    SG311    CG2O2     9   180.000000     0.216731     3
    HGA2    CG321    SG311    CG2O6     9     0.000000     1.506240     3
    HGA2    CG321    SG311   CG2R61     9     0.000000     0.836800     3
    HGA2    CG321    SG311   CG2R62     9     0.000000     0.836800     3
    HGA2    CG321    SG311   CG2R64     9     0.000000     0.836800     3
    HGA2    CG321    SG311    CG301     9     0.000000     1.171520     3
    HGA2    CG321    SG311    CG311     9     0.000000     1.171520     3
    HGA2    CG321    SG311    CG312     9     0.000000     0.011715     3
    HGA2    CG321    SG311    CG314     9     0.000000     0.507101     3
    HGA2    CG321    SG311    CG321     9     0.000000     1.171520     3
    HGA2    CG321    SG311    CG331     9     0.000000     1.171520     3
    HGA2    CG321    SG311   CG3C41     9     0.000000     1.171520     3
    HGA2    CG321    SG311   CG3C51     9     0.000000     1.171520     3
    HGA2    CG321    SG311   CG3RC1     9     0.000000     1.171520     3
    HGA2    CG321    SG311    NG2D1     9   180.000000     1.202482     3
    HGA2    CG321    SG311     HGP3     9     0.000000     0.836800     3
    HGA2    CG321    SG3O1    OG2P1     9     0.000000     0.794960     3
    HGA2    CG321    SG3O2   CG2R51     9     0.000000     0.000000     3
    HGA2    CG321    SG3O2   CG2R61     9     0.000000     0.000000     3
    HGA2    CG321    SG3O2    CG301     9     0.000000     0.502080     3
    HGA2    CG321    SG3O2    CG311     9     0.000000     0.502080     3
    HGA2    CG321    SG3O2    CG321     9     0.000000     0.502080     3
    HGA2    CG321    SG3O2    CG331     9     0.000000     0.523000     3
    HGA2    CG321    SG3O2   CG3RC1     9     0.000000     0.000000     3
    HGA2    CG321    SG3O2    NG301     9     0.000000     0.669440     3
    HGA2    CG321    SG3O2    NG311     9     0.000000     0.669440     3
    HGA2    CG321    SG3O2    OG2P1     9     0.000000     0.669440     3
    HGA2    CG321    SG3O2    OG303     9     0.000000     0.000000     3
    HGA2    CG321    SG3O3    CG2O4     9     0.000000     0.000000     3
    HGA2    CG321    SG3O3    CG301     9     0.000000     0.836800     3
    HGA2    CG321    SG3O3    CG311     9     0.000000     0.000000     3
    HGA2    CG321    SG3O3    CG321     9     0.000000     0.000000     3
    HGA2    CG321    SG3O3    CG331     9     0.000000     0.836800     3
    HGA2    CG321    SG3O3    OG2P1     9     0.000000     0.836800     3
    HGA2    CG321    BG201    OG2D2     9     0.000000     0.000000     3
    HGA2    CG321    BG201    OG311     9   180.000000     0.000000     3
    HGA2    CG321    CG2O1      NH1     9     0.000000     0.000000     3
    HGA2    CG321    CG2O1        N     9     0.000000     0.000000     1
    HGA2    CG321      CT1        C     9     0.000000     0.836800     3
    HGA2    CG321      CT1       CC     9     0.000000     0.836800     3
    HGA2    CG321     CTD1        C     9     0.000000     0.836800     3
    HGA2    CG321     CTL1     HAL1     9     0.000000     0.836800     3
    HGA2    CG321     CTL1      OSL     9     0.000000     0.836800     3
    HGA2    CG321     CTL1     CTL2     9     0.000000     0.836800     3
    HGA2    CG323    CG331     HGA3     9     0.000000     0.669440     3
    HGA2    CG324    CG324     HGA2     9     0.000000     0.836800     3
    HGA2    CG324    CG331     HGA3     9     0.000000     0.669440     3
    HGA2    CG324   CG3C31   CG2R61     9     0.000000     0.000000     3
    HGA2    CG324   CG3C31   CG3C31     9     0.000000     0.815880     3
    HGA2    CG324   CG3C31   CG3RC1     9     0.000000     0.000000     3
    HGA2    CG324   CG3C31    NG301     9     0.000000     0.000000     1
    HGA2    CG324   CG3C31    NG301     9     0.000000     0.000000     3
    HGA2    CG324   CG3C31    NG311     9     0.000000     0.000000     1
    HGA2    CG324   CG3C31    NG311     9     0.000000     0.000000     3
    HGA2    CG324   CG3C31   OG3C61     9     0.000000     0.000000     1
    HGA2    CG324   CG3C31   OG3C61     9     0.000000     0.000000     3
    HGA2    CG324   CG3C31     HGA1     9     0.000000     0.815880     3
    HGA2    CG324   CG3C41    CG2O4     9     0.000000     0.000000     3
    HGA2    CG324   CG3C41   CG2R61     9     0.000000     0.000000     3
    HGA2    CG324   CG3C41    CG311     9     0.000000     0.000000     3
    HGA2    CG324   CG3C41    CG321     9     0.000000     0.000000     3
    HGA2    CG324   CG3C41   CG3C41     9     0.000000     0.000000     3
    HGA2    CG324   CG3C41   OG3C51     9     0.000000     0.000000     1
    HGA2    CG324   CG3C41   OG3C51     9     0.000000     0.000000     3
    HGA2    CG324   CG3C50    CG311     9     0.000000     0.000000     3
    HGA2    CG324   CG3C50    CG321     9     0.000000     0.000000     3
    HGA2    CG324   CG3C50   CG3C52     9     0.000000     0.669440     3
    HGA2    CG324   CG3C50   NG3C51     9     0.000000     1.840960     3
    HGA2    CG324   CG3C50    OG311     9     0.000000     0.000000     3
    HGA2    CG324   CG3C50   OG3C51     9     0.000000     0.669440     3
    HGA2    CG324   CG3C51   CG3C50     9     0.000000     0.669440     3
    HGA2    CG324   CG3C51   CG3C52     9     0.000000     0.669440     3
    HGA2    CG324   CG3C51   NG3C51     9     0.000000     0.000000     3
    HGA2    CG324   CG3C51     HGA1     9     0.000000     0.669440     3
    HGA2    CG324   CG3RC1   CG2RC0     9     0.000000     0.000000     3
    HGA2    CG324   CG3RC1   CG3C31     9     0.000000     0.836800     3
    HGA2    CG324   CG3RC1   CG3C41     9     0.000000     0.000000     3
    HGA2    CG324   CG3RC1   CG3C52     9     0.000000     0.836800     1
    HGA2    CG324   CG3RC1   CG3C53     9     0.000000     0.000000     1
    HGA2    CG324   CG3RC1   CG3RC1     9     0.000000     0.627600     3
    HGA2    CG324   CG3RC1   OG3C51     9     0.000000     0.000000     3
    HGA2    CG324   CG3RC1     HGA1     9     0.000000     0.627600     3
    HGA2    CG324    NG2D1    CG2N2     9   180.000000     0.460240     3
    HGA2    CG324    NG2O1    OG2N1     9   180.000000     0.062760     6
    HGA2    CG324    NG2P1   CG2DC1     9   180.000000     0.627600     3
    HGA2    CG324    NG2P1   CG2DC2     9   180.000000     0.627600     3
    HGA2    CG324    NG2P1    CG2N1     9   180.000000     0.000000     6
    HGA2    CG324    NG2P1    CG2N2     9   180.000000     0.000000     6
    HGA2    CG324    NG2P1   CG2R61     9     0.000000     0.000000     3
    HGA2    CG324    NG2P1   CG2R62     9     0.000000     0.000000     3
    HGA2    CG324    NG2P1   CG2R64     9     0.000000     0.000000     3
    HGA2    CG324    NG2P1    CG324     9     0.000000     0.083680     3
    HGA2    CG324    NG2P1    CG334     9     0.000000     0.000000     1
    HGA2    CG324    NG2P1    CG334     9     0.000000     0.000000     2
    HGA2    CG324    NG2P1    CG334     9     0.000000     0.000000     3
    HGA2    CG324    NG2P1     HGP2     9   180.000000     0.000000     6
    HGA2    CG324   NG2R52   CG2R51     9   180.000000     0.209200     3
    HGA2    CG324   NG2R52   CG2R53     9   180.000000     0.627600     3
    HGA2    CG324   NG2R52   CG2R57     9   180.000000     0.209200     3
    HGA2    CG324   NG2R52   CG3C54     9     0.000000     0.000000     3
    HGA2    CG324   NG2R61   CG2R61     9     0.000000     0.000000     3
    HGA2    CG324   NG2R61   CG2R62     9     0.000000     0.000000     3
    HGA2    CG324   NG2R61   CG2R63     9     0.000000     0.209200     6
    HGA2    CG324   NG2R61   CG2R64     9     0.000000     0.000000     3
    HGA2    CG324   NG2R61   CG2RC0     9     0.000000     0.000000     3
    HGA2    CG324    NG301    CG321     9     0.000000     0.418400     3
    HGA2    CG324    NG301    CG331     9     0.000000     0.418400     3
    HGA2    CG324    NG3P1   CG2D1O     9     0.000000     0.000000     3
    HGA2    CG324    NG3P1   CG2D2O     9     0.000000     0.000000     3
    HGA2    CG324    NG3P1   CG2R61     9     0.000000     0.000000     3
    HGA2    CG324    NG3P1    CG301     9     0.000000     0.000000     3
    HGA2    CG324    NG3P1    CG314     9     0.000000     0.418400     3
    HGA2    CG324    NG3P1    CG324     9     0.000000     0.418400     3
    HGA2    CG324    NG3P1    CG334     9     0.000000     0.418400     3
    HGA2    CG324    NG3P1   CG3C31     9     0.000000     0.000000     3
    HGA2    CG324    NG3P1   CG3C41     9     0.000000     0.000000     3
    HGA2    CG324    NG3P1   CG3C50     9     0.000000     0.000000     3
    HGA2    CG324    NG3P1   CG3C53     9     0.000000     0.000000     3
    HGA2    CG324    NG3P1     HGP2     9     0.000000     0.418400     3
    HGA2    CG324    NG3P2   CG2D1O     9     0.000000     0.000000     3
    HGA2    CG324    NG3P2   CG2D2O     9     0.000000     0.000000     3
    HGA2    CG324    NG3P2    CG314     9     0.000000     0.418400     3
    HGA2    CG324    NG3P2    CG324     9     0.000000     0.418400     3
    HGA2    CG324    NG3P2    CG334     9     0.000000     0.418400     3
    HGA2    CG324    NG3P2   CG3C53     9     0.000000     0.418400     3
    HGA2    CG324    NG3P2     HGP2     9     0.000000     0.418400     3
    HGA2    CG324    NG3P3     HGP2     9     0.000000     0.418400     3
    HGA2    CG324      CT1        C     9     0.000000     0.836800     3
    HGA2    CG324     CTD1        C     9     0.000000     0.836800     3
    HGA2   CG3C31   CG3C31     HGA2     9   180.000000     0.836800     5
    HGA2   CG3C31   CG3RC1    CG2D1     9     0.000000     0.000000     3
    HGA2   CG3C31   CG3RC1    CG2O1     9     0.000000     0.000000     3
    HGA2   CG3C31   CG3RC1    CG2O3     9     0.000000     0.000000     3
    HGA2   CG3C31   CG3RC1    CG2O5     9     0.000000     0.000000     3
    HGA2   CG3C31   CG3RC1    CG311     9     0.000000     0.836800     3
    HGA2   CG3C31   CG3RC1    CG321     9     0.000000     0.815880     3
    HGA2   CG3C31   CG3RC1    CG331     9     0.000000     0.836800     3
    HGA2   CG3C31   CG3RC1   CG3C51     9     0.000000     0.815880     3
    HGA2   CG3C31   CG3RC1   CG3C52     9     0.000000     0.815880     3
    HGA2   CG3C31   CG3RC1   CG3RC1     9     0.000000     0.627600     3
    HGA2   CG3C31   CG3RC1   NG2R51     9     0.000000     0.627600     3
    HGA2   CG3C31   CG3RC1   NG2R61     9     0.000000     0.627600     3
    HGA2   CG3C31   CG3RC1    NG321     9     0.000000     0.000000     1
    HGA2   CG3C31   CG3RC1    NG321     9     0.000000     0.000000     2
    HGA2   CG3C31   CG3RC1    NG321     9     0.000000     0.000000     3
    HGA2   CG3C31   CG3RC1    NG3P3     9     0.000000     0.000000     3
    HGA2   CG3C31   CG3RC1   OG3R60     9     0.000000     0.000000     3
    HGA2   CG3C31   CG3RC1     HGA1     9     0.000000     0.627600     3
    HGA2   CG3C31   CG3RC1     CTL2     9     0.000000     0.815880     3
    HGA2   CG3C31   CG3RC1     CTL3     9     0.000000     0.815880     3
    HGA2   CG3C31   OG3C31   CG3C31     9     0.000000     2.677760     5
    HGA2   CG3C31   OG3C31   CG3C31     9   180.000000     3.389040     6
    HGA2   CG3C41   CG3C41     HGA2     9     0.000000     0.000000     3
    HGA2   CG3C41   CG3RC1   CG2R53     9     0.000000     0.000000     3
    HGA2   CG3C41   CG3RC1   CG2RC0     9     0.000000     0.000000     3
    HGA2   CG3C41   CG3RC1    CG311     9     0.000000     0.000000     3
    HGA2   CG3C41   CG3RC1    CG321     9     0.000000     0.000000     3
    HGA2   CG3C41   CG3RC1    CG324     9     0.000000     0.000000     3
    HGA2   CG3C41   CG3RC1   CG3C41     9     0.000000     0.000000     3
    HGA2   CG3C41   CG3RC1   CG3C52     9     0.000000     0.000000     3
    HGA2   CG3C41   CG3RC1   CG3C53     9     0.000000     0.000000     3
    HGA2   CG3C41   CG3RC1   CG3RC1     9     0.000000     0.000000     3
    HGA2   CG3C41   CG3RC1   NG2R43     9     0.000000     0.000000     3
    HGA2   CG3C41   CG3RC1   NG2R53     9     0.000000     0.000000     3
    HGA2   CG3C41   CG3RC1     HGA1     9     0.000000     0.000000     3
    HGA2   CG3C41   NG2R43   CG2R53     9     0.000000     2.384880     3
    HGA2   CG3C41   NG2R43   CG2R61     9     0.000000     0.000000     3
    HGA2   CG3C41   NG2R43    CG331     9     0.000000     0.000000     3
    HGA2   CG3C41   NG2R43     HGP1     9     0.000000     0.000000     3
    HGA2   CG3C41    NG2S0    CG2O6     9   180.000000     0.000000     3
    HGA2   CG3C41    NG2S0   CG3RC1     9     0.000000     0.000000     3
    HGA2   CG3C41    NG301    CG331     9     0.000000     0.000000     3
    HGA2   CG3C41    NG301   CG3C41     9     0.000000     0.000000     3
    HGA2   CG3C41    NG311   CG3C41     9     0.000000     0.000000     3
    HGA2   CG3C41    NG311   HGPAM1     9     0.000000     0.000000     3
    HGA2   CG3C41    NG3P2   CG3C41     9     0.000000     0.000000     3
    HGA2   CG3C41    NG3P2     HGP2     9     0.000000     0.000000     3
    HGA2   CG3C41   OG3C51    CG2O4     9   180.000000     1.415447     3
    HGA2   CG3C41   OG3C51   CG3C41     9     0.000000     1.255200     3
    HGA2   CG3C41    SG3O2   CG3C41     9     0.000000     0.000000     3
    HGA2   CG3C41    SG3O2    OG2P1     9     0.000000     0.000000     3
    HGA2   CG3C52   CG3C52     HGA2     9     0.000000     0.794960     3
    HGA2   CG3C52   CG3C53    CG2O1     9     0.000000     0.585760     3
    HGA2   CG3C52   CG3C53    CG2O3     9     0.000000     0.585760     3
    HGA2   CG3C52   CG3C53   CG2R51     9     0.000000     0.585760     3
    HGA2   CG3C52   CG3C53   CG2R53     9     0.000000     0.000000     3
    HGA2   CG3C52   CG3C53   CG2R57     9     0.000000     0.585760     3
    HGA2   CG3C52   CG3C53   CG2R61     9     0.000000     0.000000     3
    HGA2   CG3C52   CG3C53   CG2R64     9     0.000000     0.000000     3
    HGA2   CG3C52   CG3C53   CG2RC0     9     0.000000     0.585760     3
    HGA2   CG3C52   CG3C53    CG301     9     0.000000     0.794960     3
    HGA2   CG3C52   CG3C53    CG311     9     0.000000     0.794960     3
    HGA2   CG3C52   CG3C53    CG331     9     0.000000     0.794960     3
    HGA2   CG3C52   CG3C53   CG3C50     9     0.000000     0.627600     3
    HGA2   CG3C52   CG3C53   CG3C51     9     0.000000     0.794960     3
    HGA2   CG3C52   CG3C53   CG3C52     9     0.000000     0.000000     3
    HGA2   CG3C52   CG3C53   CG3C54     9     0.000000     0.669440     3
    HGA2   CG3C52   CG3C53   CG3RC1     9     0.000000     0.627600     3
    HGA2   CG3C52   CG3C53   NG2R52     9     0.000000     1.255200     3
    HGA2   CG3C52   CG3C53    NG3P1     9     0.000000     0.000000     3
    HGA2   CG3C52   CG3C53    NG3P2     9     0.000000     0.585760     3
    HGA2   CG3C52   CG3C53    NG3P3     9     0.000000     0.585760     3
    HGA2   CG3C52   CG3C53     HGA1     9     0.000000     0.585760     3
    HGA2   CG3C52   CG3C54    NG2P1     9     0.000000     0.000000     3
    HGA2   CG3C52   CG3C54   NG2R52     9     0.000000     1.255200     3
    HGA2   CG3C52   CG3C54   NG2RC0     9     0.000000     0.000000     3
    HGA2   CG3C52   CG3C54    NG3P0     9     0.000000     0.585760     3
    HGA2   CG3C52   CG3C54    NG3P1     9     0.000000     0.585760     3
    HGA2   CG3C52   CG3C54    NG3P2     9     0.000000     0.585760     3
    HGA2   CG3C52   CG3C54     HGA2     9     0.000000     0.585760     3
    HGA2   CG3C52   CG3C54     HGP5     9     0.000000     0.000000     3
    HGA2   CG3C52   CG3RC1    CG2D1     9     0.000000     0.000000     3
    HGA2   CG3C52   CG3RC1    CG2O1     9     0.000000     0.000000     3
    HGA2   CG3C52   CG3RC1    CG2O2     9     0.000000     0.000000     3
    HGA2   CG3C52   CG3RC1    CG2O5     9     0.000000     0.000000     3
    HGA2   CG3C52   CG3RC1   CG2R51     9     0.000000     0.000000     3
    HGA2   CG3C52   CG3RC1   CG2R57     9     0.000000     0.000000     3
    HGA2   CG3C52   CG3RC1   CG2RC0     9     0.000000     0.000000     3
    HGA2   CG3C52   CG3RC1    CG301     9     0.000000     0.836800     3
    HGA2   CG3C52   CG3RC1    CG302     9     0.000000     0.000000     1
    HGA2   CG3C52   CG3RC1    CG311     9     0.000000     0.815880     3
    HGA2   CG3C52   CG3RC1    CG314     9     0.000000     0.000000     3
    HGA2   CG3C52   CG3RC1    CG321     9     0.000000     0.815880     1
    HGA2   CG3C52   CG3RC1    CG324     9     0.000000     0.000000     3
    HGA2   CG3C52   CG3RC1    CG331     9     0.000000     0.836800     1
    HGA2   CG3C52   CG3RC1   CG3C31     9     0.000000     0.815880     3
    HGA2   CG3C52   CG3RC1   CG3C41     9     0.000000     0.000000     3
    HGA2   CG3C52   CG3RC1   CG3C50     9     0.000000     0.000000     3
    HGA2   CG3C52   CG3RC1   CG3C51     9     0.000000     0.000000     3
    HGA2   CG3C52   CG3RC1   CG3C52     9     0.000000     0.000000     3
    HGA2   CG3C52   CG3RC1   CG3C53     9     0.000000     0.000000     3
    HGA2   CG3C52   CG3RC1   CG3RC1     9     0.000000     0.627600     3
    HGA2   CG3C52   CG3RC1   NG2R50     9     0.000000     0.000000     3
    HGA2   CG3C52   CG3RC1   NG2R51     9     0.000000     0.627600     3
    HGA2   CG3C52   CG3RC1   NG2R53     9     0.000000     0.627600     3
    HGA2   CG3C52   CG3RC1   NG2R61     9     0.000000     0.627600     3
    HGA2   CG3C52   CG3RC1    NG2S0     9     0.000000     0.627600     3
    HGA2   CG3C52   CG3RC1    NG2S1     9     0.000000     0.627600     3
    HGA2   CG3C52   CG3RC1    NG301     9   180.000000     0.000000     3
    HGA2   CG3C52   CG3RC1    NG311     9   180.000000     0.000000     3
    HGA2   CG3C52   CG3RC1   NG3C51     9     0.000000     0.000000     3
    HGA2   CG3C52   CG3RC1    NG3P0     9     0.000000     0.000000     3
    HGA2   CG3C52   CG3RC1    NG3P1     9     0.000000     0.000000     3
    HGA2   CG3C52   CG3RC1    NG3P2     9     0.000000     0.000000     3
    HGA2   CG3C52   CG3RC1    NG3P3     9     0.000000     0.000000     3
    HGA2   CG3C52   CG3RC1    OG311     9   180.000000     0.000000     3
    HGA2   CG3C52   CG3RC1   OG3C31     9     0.000000     1.506240     3
    HGA2   CG3C52   CG3RC1   OG3C51     9     0.000000     0.000000     3
    HGA2   CG3C52   CG3RC1   OG3C61     9   180.000000     0.000000     3
    HGA2   CG3C52   CG3RC1    SG311     9     0.000000     0.000000     3
    HGA2   CG3C52   CG3RC1    SG3O2     9     0.000000     0.000000     3
    HGA2   CG3C52   CG3RC1    SG3O3     9     0.000000     0.000000     3
    HGA2   CG3C52   CG3RC1     HGA1     9     0.000000     0.627600     3
    HGA2   CG3C52   CG3RC1     HGP5     9     0.000000     0.000000     3
    HGA2   CG3C52   NG2R50   CG2R52     9     0.000000     0.000000     3
    HGA2   CG3C52   NG2R50   CG2R53     9     0.000000     2.510400     3
    HGA2   CG3C52   NG2R50   CG2RC0     9     0.000000     0.000000     3
    HGA2   CG3C52   NG2R50   NG2R50     9     0.000000     0.000000     3
    HGA2   CG3C52   NG2R51   CG2R51     9   180.000000     0.000000     2
    HGA2   CG3C52   NG2R51   CG2R53     9   180.000000     0.000000     2
    HGA2   CG3C52   NG2R51   CG2R53     9     0.000000     0.000000     3
    HGA2   CG3C52   NG2R51   CG2RC0     9   180.000000     0.000000     2
    HGA2   CG3C52   NG2R51   NG2R50     9   180.000000     0.000000     2
    HGA2   CG3C52   NG2R53   CG2R53     9     0.000000     0.000000     3
    HGA2   CG3C52   NG2R53   CG2R61     9     0.000000     0.000000     3
    HGA2   CG3C52   NG2R53    CG301     9     0.000000     0.000000     3
    HGA2   CG3C52   NG2R53    CG311     9     0.000000     0.000000     3
    HGA2   CG3C52   NG2R53    CG331     9     0.000000     0.000000     3
    HGA2   CG3C52   NG2R53   CG3C51     9     0.000000     0.000000     3
    HGA2   CG3C52   NG2R53   CG3RC1     9     0.000000     0.000000     3
    HGA2   CG3C52   NG2R53   NG3C51     9     0.000000     0.000000     3
    HGA2   CG3C52   NG2R53     HGP1     9   180.000000     0.000000     3
    HGA2   CG3C52   NG2R57   CG2R53     9   180.000000     0.000000     2
    HGA2   CG3C52   NG2R57   CG2R53     9     0.000000     0.000000     3
    HGA2   CG3C52   NG2R57   CG2R57     9   180.000000     0.000000     2
    HGA2   CG3C52   NG2R57   CG2RC0     9   180.000000     0.000000     2
    HGA2   CG3C52   NG2R57   CG3C51     9   180.000000     0.000000     2
    HGA2   CG3C52   NG2R57   CG3C52     9   180.000000     0.000000     2
    HGA2   CG3C52   NG2R61   CG2R63     9     0.000000     0.836800     3
    HGA2   CG3C52   NG2R61   CG2R64     9     0.000000     0.836800     3
    HGA2   CG3C52   NG2R61   CG2RC0     9     0.000000     0.836800     3
    HGA2   CG3C52    NG2S0    CG2O1     9   180.000000     0.000000     3
    HGA2   CG3C52    NG2S0   CG2RC0     9   180.000000     0.000000     3
    HGA2   CG3C52    NG2S0   CG3C50     9     0.000000     0.418400     3
    HGA2   CG3C52    NG2S0   CG3C51     9     0.000000     0.418400     3
    HGA2   CG3C52    NG2S0   CG3C52     9     0.000000     0.418400     3
    HGA2   CG3C52    NG2S0   CG3RC1     9     0.000000     0.418400     3
    HGA2   CG3C52   NG3C51   CG251O     9     0.000000     0.000000     3
    HGA2   CG3C52   NG3C51   CG252O     9     0.000000     0.000000     3
    HGA2   CG3C52   NG3C51   CG2D1O     9     0.000000     0.000000     3
    HGA2   CG3C52   NG3C51   CG2D2O     9     0.000000     0.000000     3
    HGA2   CG3C52   NG3C51   CG2R51     9     0.000000     0.000000     3
    HGA2   CG3C52   NG3C51   CG2R53     9     0.000000     0.418400     3
    HGA2   CG3C52   NG3C51   CG2R57     9     0.000000     0.000000     3
    HGA2   CG3C52   NG3C51   CG2R61     9     0.000000     0.000000     3
    HGA2   CG3C52   NG3C51   CG2R62     9     0.000000     0.000000     3
    HGA2   CG3C52   NG3C51   CG2R64     9     0.000000     0.000000     3
    HGA2   CG3C52   NG3C51   CG2RC0     9     0.000000     0.000000     3
    HGA2   CG3C52   NG3C51    CG311     9     0.000000     0.418400     3
    HGA2   CG3C52   NG3C51    CG321     9     0.000000     0.402919     3
    HGA2   CG3C52   NG3C51    CG331     9     0.000000     0.402919     3
    HGA2   CG3C52   NG3C51   CG3C41     9     0.000000     0.418400     3
    HGA2   CG3C52   NG3C51   CG3C50     9     0.000000     0.000000     3
    HGA2   CG3C52   NG3C51   CG3C51     9     0.000000     0.000000     3
    HGA2   CG3C52   NG3C51   CG3C52     9     0.000000     0.000000     3
    HGA2   CG3C52   NG3C51   CG3C54     9     0.000000     2.008320     3
    HGA2   CG3C52   NG3C51   NG2R50     9     0.000000     1.255200     3
    HGA2   CG3C52   NG3C51   NG2R53     9     0.000000     0.000000     3
    HGA2   CG3C52   NG3C51    NG3P2     9     0.000000     0.000000     3
    HGA2   CG3C52   NG3C51    OG312     9     0.000000    15.002150     3
    HGA2   CG3C52   NG3C51   OG3C51     9     0.000000     8.885979     3
    HGA2   CG3C52   NG3C51    SG3O2     9     0.000000     0.000000     3
    HGA2   CG3C52   NG3C51     HGP1     9     0.000000     0.000000     3
    HGA2   CG3C52   OG3C51   CG2R51     9     0.000000     0.000000     3
    HGA2   CG3C52   OG3C51   CG2R53     9     0.000000     0.000000     3
    HGA2   CG3C52   OG3C51   CG2RC0     9     0.000000     1.255200     3
    HGA2   CG3C52   OG3C51   CG3C41     9     0.000000     0.000000     3
    HGA2   CG3C52   OG3C51   CG3C50     9     0.000000     1.255200     3
    HGA2   CG3C52   OG3C51   CG3C51     9     0.000000     1.255200     3
    HGA2   CG3C52   OG3C51   CG3C52     9     0.000000     1.255200     3
    HGA2   CG3C52   OG3C51   CG3RC1     9     0.000000     1.255200     3
    HGA2   CG3C52   OG3C51   NG3C51     9     0.000000     0.000000     3
    HGA2   CG3C52   OG3C51    BG201     9   180.000000     1.463563     3
    HGA2   CG3C52    SG311   CG2R53     9   180.000000     0.000000     3
    HGA2   CG3C52    SG311   CG2R57     9   180.000000     0.000000     3
    HGA2   CG3C52    SG311   CG2RC0     9   180.000000     0.000000     3
    HGA2   CG3C52    SG311   CG3C50     9     0.000000     1.171520     3
    HGA2   CG3C52    SG311   CG3C51     9     0.000000     1.171520     3
    HGA2   CG3C52    SG311   CG3C52     9     0.000000     1.159386     3
    HGA2   CG3C52    SG311   CG3C53     9     0.000000     0.000000     3
    HGA2   CG3C52    SG311   CG3RC1     9     0.000000     1.171520     3
    HGA2   CG3C52    SG3O2   CG2R51     9     0.000000     0.000000     3
    HGA2   CG3C52    SG3O2   CG3C41     9     0.000000     0.000000     3
    HGA2   CG3C52    SG3O2   CG3C50     9     0.000000     0.000000     3
    HGA2   CG3C52    SG3O2   CG3C51     9     0.000000     0.000000     3
    HGA2   CG3C52    SG3O2   CG3C52     9     0.000000     0.000000     3
    HGA2   CG3C52    SG3O2    OG2P1     9     0.000000     0.000000     3
    HGA2   CG3C52    SG3O3   CG2R52     9     0.000000     0.000000     3
    HGA2   CG3C52    SG3O3   CG3C52     9     0.000000     0.000000     3
    HGA2   CG3C52    SG3O3   CG3RC1     9     0.000000     0.000000     3
    HGA2   CG3C52    SG3O3    OG2P1     9     0.000000     0.000000     3
    HGA2   CG3C54   CG3C54     HGA2     9     0.000000     0.585760     3
    HGA2   CG3C54   CG3RC1    CG2O4     9     0.000000     0.000000     3
    HGA2   CG3C54   CG3RC1   CG2R53     9     0.000000     0.000000     3
    HGA2   CG3C54   CG3RC1    CG301     9     0.000000     0.836800     3
    HGA2   CG3C54   CG3RC1    CG321     9     0.000000     0.836800     1
    HGA2   CG3C54   CG3RC1   CG3RC1     9     0.000000     0.627600     3
    HGA2   CG3C54   CG3RC1     HGA1     9     0.000000     0.627600     3
    HGA2   CG3C54    NG2P1   CG2R64     9     0.000000     0.000000     3
    HGA2   CG3C54    NG2P1   CG3C54     9     0.000000     0.000000     3
    HGA2   CG3C54   NG2R52    CG2O1     9   180.000000     0.000000     3
    HGA2   CG3C54   NG2R52   CG2R51     9   180.000000     0.000000     3
    HGA2   CG3C54   NG2R52   CG2R52     9   180.000000     0.000000     3
    HGA2   CG3C54   NG2R52   CG2R53     9   180.000000     0.000000     3
    HGA2   CG3C54   NG2R52   CG2R57     9   180.000000     0.000000     3
    HGA2   CG3C54   NG2R52   CG2R61     9   180.000000     0.000000     3
    HGA2   CG3C54   NG2R52   CG2R62     9   180.000000     0.000000     3
    HGA2   CG3C54   NG2R52   CG2R63     9   180.000000     0.000000     3
    HGA2   CG3C54   NG2R52   CG2RC0     9   180.000000     0.000000     3
    HGA2   CG3C54   NG2R52    CG324     9   180.000000     0.000000     3
    HGA2   CG3C54   NG2R52    CG334     9   180.000000     0.000000     2
    HGA2   CG3C54   NG2R52   CG3C54     9   180.000000     0.000000     3
    HGA2   CG3C54   NG2R52     HGP2     9     0.000000     0.000000     3
    HGA2   CG3C54   NG2RC0   CG2R62     9   180.000000     0.000000     2
    HGA2   CG3C54   NG2RC0   CG2RC0     9   180.000000     0.000000     2
    HGA2   CG3C54   NG3C51    CG331     9     0.000000     0.418400     3
    HGA2   CG3C54   NG3C51   CG3C52     9     0.000000     2.008320     3
    HGA2   CG3C54   NG3C51     HGP1     9     0.000000     0.000000     3
    HGA2   CG3C54    NG3P1   CG2R51     9     0.000000     0.000000     3
    HGA2   CG3C54    NG3P1    CG334     9     0.000000     0.000000     3
    HGA2   CG3C54    NG3P1     HGP2     9     0.000000     0.000000     3
    HGA2   CG3C54    NG3P2   CG2R51     9     0.000000     0.836800     3
    HGA2   CG3C54    NG3P2   CG3C53     9     0.000000     0.334720     3
    HGA2   CG3C54    NG3P2   CG3C54     9     0.000000     0.418400     3
    HGA2   CG3C54    NG3P2   NG3C51     9     0.000000     0.418400     3
    HGA2   CG3C54    NG3P2     HGP2     9     0.000000     0.334720     3
    HGA2     CRL2     CEL1     CRL1     9     0.000000     0.125520     3
    HGA2     CRL2     CEL1     CTL1     9     0.000000     0.125520     3
    HGA2     CTL2     CEL1     CRL1     9     0.000000     0.125520     3
    HGA2     CTL2     CEL1     CTL1     9     0.000000     0.125520     3
   SG2P1    CG321    CG331     HGA3     9     0.000000     0.526766     3
   SG2P1    CG321      CT1        C     9     0.000000    -4.745493     1
   SG2P1    CG321      CT1        C     9     0.000000     0.236396     2
   SG2P1    CG321      CT1        C     9     0.000000     2.545964     3
   SG2P1    CG321      CT1      HB1     9     0.000000     0.762325     3
   SG2P1    CG321      CT1      NH1     9     0.000000     8.645818     1
   SG2P1    CG321      CT1      NH1     9     0.000000    -0.626763     2
   SG2P1    CG321      CT1      NH1     9     0.000000    -0.005021     3
     PG1    CG321    SG311    CG321     9   180.000000    20.781510     1
     PG1    CG321    SG311    CG321     9     0.000000     4.339645     3
     PG1    OG304      PG1    OG2P1     9     0.000000     0.418400     2
     PG1    OG304      PG1    OG2P1     9     0.000000     0.125520     3
     PG1    OG304      PG1    OG303     9     0.000000     0.125520     2
     PG1    OG304      PG1    OG303     9     0.000000     0.125520     3
     PG1    OG304      PG1    OG304     9     0.000000     0.125520     2
     PG1    OG304      PG1    OG304     9     0.000000     0.125520     3
     PG1    OG304      PG1    OG311     9     0.000000     0.418400     2
     PG1    OG304      PG1    OG311     9     0.000000     0.125520     3
     PG1    OG304      PG2    OG2P1     9     0.000000     0.125520     3
     PG1    OG304      PG2    OG2S1     9     0.000000     0.125520     3
     PG1    OG304      PG2    SG2P1     9     0.000000     0.125520     3
     PG1    OG304      PG2    SG2P2     9     0.000000     0.125520     3
     PG2    CG321    SG311    CG321     9   180.000000    26.257110     1
     PG2    CG321    SG311    CG321     9   180.000000     4.354707     2
     PG2    CG321    SG311    CG321     9     0.000000     0.919643     3
     PG2    CG321    SG311    CG321     9   180.000000     1.301224     4
     PG2    OG304      PG1    OG2P1     9     0.000000     0.418400     2
     PG2    OG304      PG1    OG2P1     9     0.000000     0.125520     3
     PG2    OG304      PG1    OG303     9     0.000000     0.125520     2
     PG2    OG304      PG1    OG303     9     0.000000     0.125520     3
     PG2    OG304      PG1    OG304     9     0.000000     0.125520     2
     PG2    OG304      PG1    OG304     9     0.000000     0.125520     3
     PG2    SG2P1    CG321      CT1     9   180.000000     1.405824     1
     PG2    SG2P1    CG321      CT1     9     0.000000     2.190324     2
     PG2    SG2P1    CG321      CT1     9   180.000000     0.644336     3
    HGA6    CG322    CG324    NG3P1     9     0.000000     2.928800     3
    HGA6    CG322    CG324    NG3P2     9   180.000000     3.974800     3
    HGA6    CG322    CG324     HGA2     9     0.000000     0.753120     3
    HGA6    CG322    CG331     HGA3     9     0.000000     0.774040     3
    HGA6    CG322   CG3C51   CG3C41     9   180.000000     0.292880     3
    HGA6    CG322   CG3C51   CG3C52     9     0.000000     2.803280     3
    HGA6    CG322   CG3C51     HGA1     9     0.000000     0.000000     3
    HGA6    CG322   NG2R51   CG2R53     9     0.000000     0.334720     3
    HGA6    CG322   NG2R51   CG2R53     9     0.000000     4.309520     4
    HGA6    CG322   NG2R51   CG2RC0     9     0.000000     1.799120     3
    HGA6    CG322   NG2R51   CG2RC0     9     0.000000     0.418400     6
    HGA6   CG3C51   CG3C51     HGA6     9     0.000000     0.794960     3
    HGA6   CG3C51   CG3C52   CG3C51     9     0.000000     0.794960     3
    HGA6   CG3C51   CG3C52    NG2S0     9     0.000000     0.585760     3
    HGA6   CG3C51   CG3C52   NG3C51     9     0.000000     0.000000     3
    HGA6   CG3C51   CG3C52   OG3C51     9     0.000000     0.794960     3
    HGA6   CG3C51   CG3C52     HGA2     9     0.000000     0.794960     3
    HGA6   CG3C51   CG3C54    NG3P2     9     0.000000     0.585760     3
    HGA6   CG3C51   CG3C54     HGA2     9     0.000000     0.794960     3
    HGA3    CG331    CG331     HGA3     9     0.000000     0.648520     3
    HGA3    CG331   CG3C31    CG331     9     0.000000     0.041840     1
    HGA3    CG331   CG3C31    CG331     9     0.000000     0.083680     3
    HGA3    CG331   CG3C31   CG3C31     9     0.000000     0.041840     1
    HGA3    CG331   CG3C31   CG3C31     9     0.000000     0.083680     3
    HGA3    CG331   CG3C31   CG3RC1     9     0.000000     0.041840     1
    HGA3    CG331   CG3C31   CG3RC1     9     0.000000     0.083680     3
    HGA3    CG331   CG3C31   OG3C31     9     0.000000     2.092000     1
    HGA3    CG331   CG3C31   OG3C31     9     0.000000     1.129680     3
    HGA3    CG331   CG3C31     HGA1     9     0.000000     0.000000     3
    HGA3    CG331   CG3C41    CG331     9     0.000000     0.669440     3
    HGA3    CG331   CG3C41   CG3C41     9   180.000000     0.627600     3
    HGA3    CG331   CG3C41    NG3P2     9     0.000000     0.669440     3
    HGA3    CG331   CG3C41     HGA1     9     0.000000     0.627600     3
    HGA3    CG331   CG3C50    CG2O3     9     0.000000     0.000000     3
    HGA3    CG331   CG3C50    CG2O5     9     0.000000     0.000000     3
    HGA3    CG331   CG3C50   CG2R51     9     0.000000     0.000000     3
    HGA3    CG331   CG3C50   CG2R52     9     0.000000     0.000000     3
    HGA3    CG331   CG3C50   CG2R53     9     0.000000     0.000000     3
    HGA3    CG331   CG3C50   CG2R57     9     0.000000     0.000000     3
    HGA3    CG331   CG3C50   CG2R61     9     0.000000     0.000000     3
    HGA3    CG331   CG3C50   CG2R64     9     0.000000     0.000000     3
    HGA3    CG331   CG3C50   CG2RC0     9     0.000000     0.000000     3
    HGA3    CG331   CG3C50    CG301     9     0.000000     0.000000     3
    HGA3    CG331   CG3C50    CG321     9     0.000000     0.000000     3
    HGA3    CG331   CG3C50    CG331     9     0.000000     0.000000     3
    HGA3    CG331   CG3C50   CG3C50     9     0.000000     0.669440     3
    HGA3    CG331   CG3C50   CG3C51     9     0.000000     0.669440     3
    HGA3    CG331   CG3C50   CG3C52     9     0.000000     0.000000     3
    HGA3    CG331   CG3C50   CG3C54     9     0.000000     0.669440     3
    HGA3    CG331   CG3C50   CG3RC1     9     0.000000     0.669440     3
    HGA3    CG331   CG3C50   NG2R51     9     0.000000     0.000000     3
    HGA3    CG331   CG3C50   NG2R52     9     0.000000     0.000000     3
    HGA3    CG331   CG3C50   NG2R53     9     0.000000     0.000000     1
    HGA3    CG331   CG3C50   NG2R53     9     0.000000     0.000000     2
    HGA3    CG331   CG3C50   NG2R53     9     0.000000     0.000000     3
    HGA3    CG331   CG3C50    NG2S0     9     0.000000     0.836800     3
    HGA3    CG331   CG3C50    NG321     9     0.000000     0.000000     3
    HGA3    CG331   CG3C50   NG3C51     9     0.000000     1.837613     3
    HGA3    CG331   CG3C50    NG3P3     9     0.000000     0.000000     3
    HGA3    CG331   CG3C50    OG311     9     0.000000     0.669440     3
    HGA3    CG331   CG3C50   OG3C51     9     0.000000     0.000000     3
    HGA3    CG331   CG3C50    SG311     9     0.000000     0.669440     3
    HGA3    CG331   CG3C50    SG3O2     9     0.000000     0.334720     3
    HGA3    CG331   CG3C50     FGA1     9     0.000000     0.000000     3
    HGA3    CG331   CG3C51    CG2O5     9     0.000000     0.000000     3
    HGA3    CG331   CG3C51   CG2R51     9     0.000000     0.000000     3
    HGA3    CG331   CG3C51   CG2R52     9     0.000000     0.000000     3
    HGA3    CG331   CG3C51   CG2R53     9     0.000000     0.000000     3
    HGA3    CG331   CG3C51   CG2RC0     9     0.000000     0.000000     3
    HGA3    CG331   CG3C51   CG3C50     9     0.000000     0.669440     3
    HGA3    CG331   CG3C51   CG3C51     9     0.000000     0.669440     3
    HGA3    CG331   CG3C51   CG3C52     9     0.000000     0.669440     3
    HGA3    CG331   CG3C51   CG3C53     9     0.000000     0.669440     3
    HGA3    CG331   CG3C51   CG3C54     9     0.000000     0.669440     3
    HGA3    CG331   CG3C51   CG3RC1     9     0.000000     0.669440     3
    HGA3    CG331   CG3C51   NG2R50     9     0.000000     0.000000     3
    HGA3    CG331   CG3C51   NG2R53     9     0.000000     0.000000     3
    HGA3    CG331   CG3C51   NG2R57     9     0.000000     0.000000     3
    HGA3    CG331   CG3C51    NG2S0     9     0.000000     0.836800     3
    HGA3    CG331   CG3C51   NG3C51     9     0.000000     0.000000     3
    HGA3    CG331   CG3C51   OG3C51     9     0.000000     0.669440     3
    HGA3    CG331   CG3C51    SG311     9     0.000000     0.669440     3
    HGA3    CG331   CG3C51    SG3O2     9     0.000000     0.334720     3
    HGA3    CG331   CG3C51     HGA1     9     0.000000     0.669440     3
    HGA3    CG331   CG3C53   CG3C51     9     0.000000     0.669440     3
    HGA3    CG331   CG3C53   CG3C52     9     0.000000     0.669440     3
    HGA3    CG331   CG3C53   CG3RC1     9     0.000000     0.669440     3
    HGA3    CG331   CG3C53   NG2R50     9     0.000000     0.000000     3
    HGA3    CG331   CG3C53   NG2R52     9     0.000000     0.000000     3
    HGA3    CG331   CG3C53   NG3C51     9     0.000000     1.840960     3
    HGA3    CG331   CG3C53    NG3P0     9     0.000000     0.000000     3
    HGA3    CG331   CG3C53    NG3P2     9     0.000000     0.000000     3
    HGA3    CG331   CG3C53    SG311     9     0.000000     0.669440     3
    HGA3    CG331   CG3C53     HGA1     9     0.000000     0.669440     3
    HGA3    CG331   CG3C53     HGP5     9     0.000000     0.669440     3
    HGA3    CG331   CG3RC1    CG2O5     9     0.000000     0.000000     3
    HGA3    CG331   CG3RC1    CG311     9   180.000000     0.627600     3
    HGA3    CG331   CG3RC1    CG321     9     0.000000     0.669440     3
    HGA3    CG331   CG3RC1   CG3C31     9     0.000000     0.836800     3
    HGA3    CG331   CG3RC1   CG3C51     9   180.000000     0.627600     3
    HGA3    CG331   CG3RC1   CG3C52     9   180.000000     0.627600     3
    HGA3    CG331   CG3RC1   CG3RC1     9   180.000000     0.627600     3
    HGA3    CG331   CG3RC1   NG2R53     9     0.000000     0.000000     3
    HGA3    CG331   CG3RC1    NG2S0     9     0.000000     0.669440     3
    HGA3    CG331   CG3RC1    NG311     9     0.000000     0.669440     3
    HGA3    CG331   CG3RC1   OG3C31     9     0.000000     0.669440     3
    HGA3    CG331   CG3RC1   OG3C51     9     0.000000     0.669440     3
    HGA3    CG331   CG3RC1   OG3C61     9     0.000000     0.669440     3
    HGA3    CG331   CG3RC1    SG311     9     0.000000     0.669440     3
    HGA3    CG331    NG2D1    CG2D1     9     0.000000     0.418400     3
    HGA3    CG331    NG2D1   CG2D1O     9     0.000000     0.418400     3
    HGA3    CG331    NG2D1   CG2D2O     9     0.000000     0.418400     3
    HGA3    CG331    NG2D1   CG2DC1     9     0.000000     0.418400     3
    HGA3    CG331    NG2D1   CG2DC2     9     0.000000     0.418400     3
    HGA3    CG331    NG2D1    CG2N1     9   180.000000     0.460240     3
    HGA3    CG331    NG2D1    CG2O1     9   180.000000     0.460240     3
    HGA3    CG331    NG2D1    CG2O7     9     0.000000     0.125520     3
    HGA3    CG331    NG2D1   CG2R64     9   180.000000     0.460240     3
    HGA3    CG331   NG2R43   CG2R53     9     0.000000     0.418400     3
    HGA3    CG331   NG2R43   CG3C41     9     0.000000     1.757280     3
    HGA3    CG331   NG2R51   CG251O     9     0.000000     0.000000     3
    HGA3    CG331   NG2R51   CG252O     9     0.000000     0.000000     3
    HGA3    CG331   NG2R51   CG2R51     9     0.000000     0.000000     3
    HGA3    CG331   NG2R51   CG2R53     9     0.000000     0.000000     3
    HGA3    CG331   NG2R51   CG2R57     9     0.000000     0.000000     3
    HGA3    CG331   NG2R51   CG2RC0     9     0.000000     0.794960     3
    HGA3    CG331   NG2R51   NG2R50     9     0.000000     0.000000     3
    HGA3    CG331   NG2R51   NG2R51     9     0.000000     0.000000     3
    HGA3    CG331   NG2R51   SG2R50     9     0.000000     0.627600     3
    HGA3    CG331   NG2R53   CG2R53     9     0.000000     0.418400     3
    HGA3    CG331   NG2R53   CG2RC0     9     0.000000     0.418400     3
    HGA3    CG331   NG2R53   CG3C50     9     0.000000     1.757280     3
    HGA3    CG331   NG2R53   CG3C51     9     0.000000     1.757280     3
    HGA3    CG331   NG2R53   CG3C52     9     0.000000     1.757280     3
    HGA3    CG331   NG2R53   CG3RC1     9     0.000000     0.000000     1
    HGA3    CG331   NG2R53   CG3RC1     9     0.000000     0.000000     2
    HGA3    CG331   NG2R53   CG3RC1     9     0.000000     0.000000     3
    HGA3    CG331   NG2R53   NG2R50     9     0.000000     0.418400     3
    HGA3    CG331   NG2R53   NG2R53     9     0.000000     0.418400     3
    HGA3    CG331   NG2R61   CG2R61     9     0.000000     0.000000     3
    HGA3    CG331   NG2R61   CG2R62     9     0.000000     0.000000     3
    HGA3    CG331   NG2R61   CG2R63     9     0.000000     0.794960     3
    HGA3    CG331   NG2R61   CG2R64     9     0.000000     0.794960     3
    HGA3    CG331   NG2R61   CG2RC0     9     0.000000     0.000000     3
    HGA3    CG331    NG2S0   CG2D1O     9     0.000000     0.000000     3
    HGA3    CG331    NG2S0   CG2D2O     9     0.000000     0.000000     3
    HGA3    CG331    NG2S0    CG2O1     9     0.000000     0.000000     3
    HGA3    CG331    NG2S0    CG2O6     9     0.000000     0.000000     3
    HGA3    CG331    NG2S0   CG2R61     9     0.000000     0.000000     3
    HGA3    CG331    NG2S0   CG2R64     9     0.000000     0.000000     3
    HGA3    CG331    NG2S0    CG311     9     0.000000     1.757280     3
    HGA3    CG331    NG2S0    CG321     9     0.000000     1.757280     3
    HGA3    CG331    NG2S0    CG331     9     0.000000     1.757280     3
    HGA3    CG331    NG2S0    NG2D1     9     0.000000     0.000000     3
    HGA3    CG331    NG2S0    NG2S1     9     0.000000     0.000000     3
    HGA3    CG331    NG2S0   OG3C61     9     0.000000     3.849280     3
    HGA3    CG331    NG2S1    CG2O1     9     0.000000     0.000000     3
    HGA3    CG331    NG2S1    CG2O6     9     0.000000     0.000000     3
    HGA3    CG331    NG2S1     HGP1     9     0.000000     0.000000     3
    HGA3    CG331    NG2S3   CG2R64     9     0.000000     1.673600     3
    HGA3    CG331    NG2S3   CG2R64     9     0.000000     0.334720     6
    HGA3    CG331    NG2S3    CG331     9   180.000000     0.278236     2
    HGA3    CG331    NG2S3    CG331     9     0.000000     0.520071     3
    HGA3    CG331    NG2S3      PG0     9     0.000000     0.627600     3
    HGA3    CG331    NG2S3      PG1     9     0.000000     0.627600     3
    HGA3    CG331    NG2S3    SG3O1     9     0.000000     0.627600     3
    HGA3    CG331    NG2S3     HGP1     9     0.000000     0.041840     3
    HGA3    CG331    NG301   CG2D1O     9     0.000000     1.799120     3
    HGA3    CG331    NG301   CG2D2O     9     0.000000     1.799120     3
    HGA3    CG331    NG301    CG2N2     9   180.000000     0.000000     3
    HGA3    CG331    NG301   CG2R61     9     0.000000     1.799120     3
    HGA3    CG331    NG301   CG2R62     9     0.000000     1.799120     3
    HGA3    CG331    NG301   CG2R64     9   180.000000     0.000000     3
    HGA3    CG331    NG301    CG301     9   180.000000     0.000000     3
    HGA3    CG331    NG301    CG311     9   180.000000     0.000000     3
    HGA3    CG331    NG301    CG321     9   180.000000     0.000000     3
    HGA3    CG331    NG301    CG324     9   180.000000     0.502080     3
    HGA3    CG331    NG301    CG331     9   180.000000     0.000000     3
    HGA3    CG331    NG301   CG3C31     9   180.000000     0.000000     3
    HGA3    CG331    NG301   CG3C41     9   180.000000     0.000000     3
    HGA3    CG331    NG301   CG3C51     9   180.000000     0.000000     3
    HGA3    CG331    NG301   CG3RC1     9   180.000000     0.000000     3
    HGA3    CG331    NG301    OG301     9   180.000000     0.000000     3
    HGA3    CG331    NG301   OG3C61     9   180.000000     0.000000     3
    HGA3    CG331    NG311    CG2N1     9   180.000000     0.000000     3
    HGA3    CG331    NG311   CG2R53     9     0.000000     1.673600     3
    HGA3    CG331    NG311   CG2R53     9     0.000000     0.334720     6
    HGA3    CG331    NG311   CG2R62     9     0.000000     1.673600     3
    HGA3    CG331    NG311   CG2R62     9     0.000000     0.334720     6
    HGA3    CG331    NG311   CG2R64     9     0.000000     1.673600     3
    HGA3    CG331    NG311   CG2R64     9     0.000000     0.334720     6
    HGA3    CG331    NG311    CG301     9     0.000000     2.092000     3
    HGA3    CG331    NG311    CG311     9     0.000000     2.092000     3
    HGA3    CG331    NG311    CG314     9   180.000000     0.487854     3
    HGA3    CG331    NG311    CG321     9     0.000000     2.092000     3
    HGA3    CG331    NG311   CG3C51     9   180.000000     0.000000     3
    HGA3    CG331    NG311    SG3O2     9     0.000000     0.418400     3
    HGA3    CG331    NG311     HGP1     9     0.000000     0.209200     3
    HGA3    CG331    NG311   HGPAM1     9     0.000000     1.757280     3
    HGA3    CG331   NG3C51   CG2R51     9     0.000000     1.673600     3
    HGA3    CG331   NG3C51   CG2R51     9     0.000000     0.334720     6
    HGA3    CG331   NG3C51   CG2R53     9     0.000000     0.000000     3
    HGA3    CG331   NG3C51   CG2R53     9     0.000000     0.000000     6
    HGA3    CG331   NG3C51   CG2R57     9     0.000000     1.673600     3
    HGA3    CG331   NG3C51   CG2R57     9     0.000000     0.334720     6
    HGA3    CG331   NG3C51   CG2RC0     9     0.000000     1.673600     3
    HGA3    CG331   NG3C51   CG2RC0     9     0.000000     0.334720     6
    HGA3    CG331   NG3C51   CG3C41     9     0.000000     0.878640     3
    HGA3    CG331   NG3C51   CG3C50     9     0.000000     0.627600     3
    HGA3    CG331   NG3C51   CG3C51     9     0.000000     0.639315     3
    HGA3    CG331   NG3C51   CG3C52     9     0.000000     0.869017     3
    HGA3    CG331   NG3C51   CG3C54     9     0.000000     0.878640     3
    HGA3    CG331   NG3C51   CG3RC1     9     0.000000     0.878640     3
    HGA3    CG331   NG3C51   NG2R50     9     0.000000     0.878640     3
    HGA3    CG331   NG3C51    NG3P2     9     0.000000     2.092000     3
    HGA3    CG331   NG3C51   OG3C51     9     0.000000     0.000000     3
    HGA3    CG331    NG3N1    CG321     9     0.000000     2.092000     3
    HGA3    CG331    NG3N1    NG3N1     9     0.000000     2.092000     3
    HGA3    CG331    OG301   CG2D1O     9     0.000000     0.271960     3
    HGA3    CG331    OG301   CG2D2O     9     0.000000     0.271960     3
    HGA3    CG331    OG301    CG2N2     9     0.000000     0.000000     3
    HGA3    CG331    OG301   CG2R52     9     0.000000     0.376560     3
    HGA3    CG331    OG301   CG2R53     9     0.000000     0.376560     3
    HGA3    CG331    OG301   CG2R61     9     0.000000     0.355640     3
    HGA3    CG331    OG301   CG2R62     9     0.000000     0.355640     3
    HGA3    CG331    OG301   CG2R64     9     0.000000     0.376560     3
    HGA3    CG331    OG301    CG301     9     0.000000     1.188256     3
    HGA3    CG331    OG301    CG311     9     0.000000     1.188256     3
    HGA3    CG331    OG301    CG321     9     0.000000     1.188256     3
    HGA3    CG331    OG301    CG331     9     0.000000     1.188256     3
    HGA3    CG331    OG301   CG3C31     9   180.000000     0.836800     1
    HGA3    CG331    OG301   CG3C31     9   180.000000     5.020800     2
    HGA3    CG331    OG301   CG3C51     9   180.000000     0.836800     1
    HGA3    CG331    OG301   CG3C51     9   180.000000     5.020800     2
    HGA3    CG331    OG301    NG2D1     9     0.000000     1.338880     3
    HGA3    CG331    OG301   NG2R61     9     0.000000     1.338880     3
    HGA3    CG331    OG301    OG311     9     0.000000     0.836800     3
    HGA3    CG331    OG301     CN7B     9   180.000000     0.836800     1
    HGA3    CG331    OG301     CN7B     9   180.000000     5.020800     2
    HGA3    CG331    OG302    CG2O2     9     0.000000     0.000000     3
    HGA3    CG331    OG302    CG2O6     9     0.000000     0.000000     3
    HGA3    CG331    OG303      PG0     9     0.000000     0.000000     3
    HGA3    CG331    OG303      PG1     9     0.000000     0.000000     3
    HGA3    CG331    OG303      PG2     9     0.000000     0.000000     3
    HGA3    CG331    OG303    SG3O1     9     0.000000     0.000000     3
    HGA3    CG331    OG303    SG3O2     9     0.000000     0.000000     3
    HGA3    CG331    OG311     HGP1     9     0.000000     0.753120     3
    HGA3    CG331      PG0    OG2P1     9     0.000000     0.376978     3
    HGA3    CG331      PG0    OG303     9     0.000000     0.306269     3
    HGA3    CG331      PG1    OG2P1     9     0.000000     0.418400     3
    HGA3    CG331      PG1    OG303     9     0.000000     0.427605     3
    HGA3    CG331    SG301    SG301     9     0.000000     0.661072     3
    HGA3    CG331    SG311   CG2D1O     9     0.000000     0.101671     3
    HGA3    CG331    SG311   CG2D2O     9     0.000000     0.101671     3
    HGA3    CG331    SG311    CG2N2     9     0.000000     1.506240     3
    HGA3    CG331    SG311    CG2O2     9     0.000000     1.506240     3
    HGA3    CG331    SG311    CG2O6     9     0.000000     1.506240     3
    HGA3    CG331    SG311   CG2R61     9   180.000000     0.627600     3
    HGA3    CG331    SG311   CG2R64     9   180.000000     0.627600     3
    HGA3    CG331    SG311   CG2R71     9   180.000000     0.627600     3
    HGA3    CG331    SG311    CG311     9     0.000000     1.171520     3
    HGA3    CG331    SG311    CG314     9     0.000000     0.507101     3
    HGA3    CG331    SG311    CG321     9     0.000000     1.171520     3
    HGA3    CG331    SG311     HGP3     9     0.000000     0.836800     3
    HGA3    CG331    SG3O1    OG2P1     9     0.000000     0.962320     3
    HGA3    CG331    SG3O2   CG2R61     9     0.000000     0.753120     3
    HGA3    CG331    SG3O2   CG2R62     9     0.000000     0.753120     3
    HGA3    CG331    SG3O2    CG311     9     0.000000     0.376560     3
    HGA3    CG331    SG3O2    CG321     9     0.000000     0.355640     3
    HGA3    CG331    SG3O2    CG331     9     0.000000     0.481160     3
    HGA3    CG331    SG3O2   CG3C41     9     0.000000     0.376560     3
    HGA3    CG331    SG3O2    NG301     9     0.000000     0.418400     3
    HGA3    CG331    SG3O2    NG311     9     0.000000     0.418400     3
    HGA3    CG331    SG3O2    NG321     9     0.000000     0.794960     3
    HGA3    CG331    SG3O2   NG3C51     9     0.000000     0.418400     3
    HGA3    CG331    SG3O2    OG2P1     9     0.000000     0.753120     3
    HGA3    CG331    SG3O2    OG303     9     0.000000     0.000000     3
    HGA3    CG331    SG3O3    CG2O4     9     0.000000     0.836800     3
    HGA3    CG331    SG3O3    CG2O5     9     0.000000     0.836800     3
    HGA3    CG331    SG3O3   CG2R61     9     0.000000     0.836800     3
    HGA3    CG331    SG3O3    CG311     9     0.000000     0.836800     3
    HGA3    CG331    SG3O3    CG321     9     0.000000     0.836800     3
    HGA3    CG331    SG3O3    CG331     9     0.000000     0.836800     3
    HGA3    CG331    SG3O3    NG2D1     9     0.000000     0.836800     3
    HGA3    CG331    SG3O3    OG2P1     9     0.000000     0.836800     3
    HGA3    CG331    BG201    OG2D2     9   180.000000     0.000000     3
    HGA3    CG331    BG201    OG311     9   180.000000     0.000000     3
    HGA3    CG331    CG2O1      NH1     9     0.000000     0.000000     3
    HGA3    CG334    NG2O1    OG2N1     9     0.000000     0.004184     6
    HGA3    CG334    NG2P1    CG2D1     9   180.000000     0.627600     3
    HGA3    CG334    NG2P1   CG2DC1     9   180.000000     0.627600     3
    HGA3    CG334    NG2P1   CG2DC2     9   180.000000     0.627600     3
    HGA3    CG334    NG2P1    CG2N1     9   180.000000     0.000000     6
    HGA3    CG334    NG2P1    CG2N2     9   180.000000     0.000000     6
    HGA3    CG334    NG2P1   CG2R61     9     0.000000     0.000000     3
    HGA3    CG334    NG2P1   CG2R63     9   180.000000     0.000000     6
    HGA3    CG334    NG2P1   CG2R64     9   180.000000     0.000000     6
    HGA3    CG334    NG2P1   CG2R71     9     0.000000     0.000000     3
    HGA3    CG334    NG2P1    CG324     9     0.000000     0.000000     1
    HGA3    CG334    NG2P1    CG324     9     0.000000     0.000000     2
    HGA3    CG334    NG2P1    CG324     9     0.000000     0.000000     3
    HGA3    CG334    NG2P1    CG334     9     0.000000     0.079496     3
    HGA3    CG334    NG2P1     HGP2     9   180.000000     0.000000     6
    HGA3    CG334   NG2R52   CG2R51     9   180.000000     0.223426     3
    HGA3    CG334   NG2R52   CG2R53     9   180.000000     0.627600     3
    HGA3    CG334   NG2R52   CG2RC0     9   180.000000     0.000000     6
    HGA3    CG334   NG2R52   CG3C50     9     0.000000     0.083680     3
    HGA3    CG334   NG2R52   CG3C54     9     0.000000     0.083680     3
    HGA3    CG334   NG2R52   NG2R50     9   180.000000     0.209200     3
    HGA3    CG334   NG2R61   CG2R61     9     0.000000     0.000000     3
    HGA3    CG334   NG2R61   CG2R62     9     0.000000     0.000000     1
    HGA3    CG334   NG2R61   CG2R62     9     0.000000     0.000000     2
    HGA3    CG334   NG2R61   CG2R62     9     0.000000     0.000000     3
    HGA3    CG334   NG2R61   CG2R64     9     0.000000     0.794960     3
    HGA3    CG334    NG3P1   CG2R51     9     0.000000     0.418400     3
    HGA3    CG334    NG3P1    CG301     9     0.000000     0.418400     3
    HGA3    CG334    NG3P1    CG314     9     0.000000     0.418400     3
    HGA3    CG334    NG3P1    CG324     9     0.000000     0.418400     3
    HGA3    CG334    NG3P1    CG334     9     0.000000     0.418400     3
    HGA3    CG334    NG3P1   CG3C31     9     0.000000     0.418400     3
    HGA3    CG334    NG3P1   CG3C41     9     0.000000     0.418400     3
    HGA3    CG334    NG3P1   CG3C54     9     0.000000     0.418400     3
    HGA3    CG334    NG3P1   CG3RC1     9     0.000000     0.418400     3
    HGA3    CG334    NG3P1     HGP2     9     0.000000     3.765600     3
    HGA3    CG334    NG3P2    CG324     9     0.000000     0.418400     3
    HGA3    CG334    NG3P2    CG334     9     0.000000     0.418400     3
    HGA3    CG334    NG3P2   CG3C53     9     0.000000     0.418400     3
    HGA3    CG334    NG3P2     HGP2     9     0.000000     0.418400     3
    HGA3    CG334    NG3P3     HGP2     9     0.000000     0.376560     3
  HGAAM0   CG3AM0    NG301   CG3AM0     9     0.000000     1.317960     3
  HGAAM1   CG3AM1    NG311   CG3AM1     9     0.000000     0.334720     3
  HGAAM1   CG3AM1    NG311   HGPAM1     9     0.000000     1.757280     3
  HGAAM2   CG3AM2    NG321   HGPAM2     9     0.000000     0.669440     3
  OG3C31   CG3C31   CG3C31     HGA1     9   180.000000     0.460240     6
  OG3C31   CG3C31   CG3C31     HGA2     9   180.000000     0.460240     6
  OG3C31   CG3C31   CG3C51   CG3C51     9   180.000000     1.757280     1
  OG3C31   CG3C31   CG3C51   CG3C51     9     0.000000     4.937120     3
  OG3C31   CG3C31   CG3C51   CG3C51     9     0.000000     1.213360     6
  OG3C31   CG3C31   CG3C51   OG3C51     9   180.000000     7.363840     1
  OG3C31   CG3C31   CG3C51   OG3C51     9     0.000000     5.355520     3
  OG3C31   CG3C31   CG3C51     HGA1     9     0.000000     0.000000     1
  OG3C31   CG3C31   CG3C51     HGA1     9     0.000000     0.000000     3
  OG3C31   CG3RC1   CG3RC1     HGA1     9     0.000000     1.255200     3
   CG2N1    NG2D1    OG301    CG321     9   180.000000     1.395364     1
   CG2N1    NG2D1    OG301    CG321     9   180.000000     0.143093     2
   CG2N1    NG2P1    OG301    CG321     9   180.000000     7.602328     1
   CG2N1    NG2P1    OG301    CG321     9     0.000000     4.133792     2
   CG2N1    NG2P1    OG301    CG321     9   180.000000     0.882824     3
   OG2N1    NG2O1   NG2R61   CG2R63     9   180.000000     0.000000     1
   OG2N1    NG2O1   NG2R61   CG2R63     9   180.000000     1.673600     2
    HGP2    NG2P1    OG301    CG321     9   180.000000     0.732200     6
    HGP2    NG2P1    OG311     HGP1     9     0.000000     7.614880     2
    HGP2    NG2P1    OG311     HGP1     9     0.000000     1.422560     6
    HGP2    NG2P1    SG311   CG2R51     9   180.000000     3.514560     1
    HGP2    NG2P1    SG311   CG2R51     9     0.000000     1.506240     2
    HGP2    NG2P1    SG311   CG2R51     9   180.000000     2.343040     3
    HGP2    NG2P1    SG311   CG2R51     9   180.000000     2.133840     4
    HGP2    NG2P1    SG311   CG2R51     9   180.000000     0.209200     6
    HGP1   NG2R51   NG2R52   CG2R51     9     0.000000     5.355520     2
    HGP1   NG2R51   NG2R52   CG2R53     9   180.000000     3.263520     2
    HGP1   NG2R51   OG2R50   CG2R53     9   180.000000    12.133600     2
    HGP1   NG2R51   OG2R50   CG2R53     9   180.000000     5.439200     3
    HGP1   NG2R53    SG311   CG2R53     9   180.000000    16.777840     2
    HGP1   NG2R53    SG311   CG2R53     9     0.000000     0.125520     3
    HGP1   NG2R53    SG3O2   CG2R51     9   180.000000     1.840960     2
    HGP1   NG2R53    SG3O2   CG2R51     9   180.000000     1.087840     3
    HGP1   NG2R53    SG3O2    OG2P1     9   180.000000     5.146320     2
    HGP1   NG2R53    SG3O2    OG2P1     9     0.000000     1.297040     3
    HGP1   NG2R61   NG2R62   CG2R61     9   180.000000    29.539040     2
    HGP1   NG2R61   NG2RC0   CG2R51     9   180.000000     2.384880     2
    HGP1   NG2R61   NG2RC0   CG2RC0     9   180.000000     2.845120     2
    HGP1    NG2S1    NG2S1     HGP1     9     0.000000    14.602160     1
    HGP1    NG2S1    NG2S1     HGP1     9     0.000000     0.962320     2
    HGP1    NG2S1    NG2S1     HGP1     9     0.000000     1.213360     3
    HGP1    NG2S1    NG3N1   CG2R71     9   180.000000    11.171280     1
    HGP1    NG2S1    NG3N1   CG2R71     9     0.000000     1.757280     4
    HGP1    NG2S1    NG3N1     HGP1     9   180.000000     1.589920     3
    HGP1    NG2S1    OG311     HGP1     9     0.000000     6.845024     1
    HGP1    NG2S1    OG311     HGP1     9   180.000000     2.180701     2
    HGP1    NG2S1    SG3O3    NG311     9     0.000000     0.000000     2
    HGP1    NG2S1    SG3O3    NG311     9     0.000000     0.000000     3
    HGP1    NG2S1    SG3O3    OG2P1     9     0.000000    32.216800     2
    HGP1    NG2S1    SG3O3    OG2P1     9   180.000000     5.104480     3
    HGP1    NG2S3      PG1    OG2P1     9     0.000000     0.209200     3
    HGP1    NG2S3      PG1    OG303     9     0.000000     0.209200     3
    HGP1    NG2S3    SG3O1    OG2P1     9     0.000000     0.209200     3
    HGP1    NG311    OG311     HGP1     9   180.000000     0.502080     1
    HGP1    NG311    OG311     HGP1     9   180.000000     2.928800     3
    HGP1    NG311    OG311     HGP1     9     0.000000     4.560560     4
    HGP1    NG311    OG311     HGP1     9   180.000000     6.610720     6
    HGP1    NG311   OG3R60   CG2R61     9     0.000000     4.142160     3
    HGP1    NG311    SG3O2   CG2R51     9   180.000000     5.020800     1
    HGP1    NG311    SG3O2   CG2R51     9     0.000000     4.602400     2
    HGP1    NG311    SG3O2   CG2R51     9     0.000000     2.092000     3
    HGP1    NG311    SG3O2   CG2R61     9   180.000000     5.020800     1
    HGP1    NG311    SG3O2   CG2R61     9     0.000000     4.602400     2
    HGP1    NG311    SG3O2   CG2R61     9     0.000000     2.092000     3
    HGP1    NG311    SG3O2    CG321     9   180.000000     5.439200     1
    HGP1    NG311    SG3O2    CG321     9     0.000000     5.020800     2
    HGP1    NG311    SG3O2    CG321     9     0.000000     0.836800     3
    HGP1    NG311    SG3O2    CG331     9   180.000000     4.184000     1
    HGP1    NG311    SG3O2    CG331     9     0.000000     4.602400     2
    HGP1    NG311    SG3O2    CG331     9     0.000000     0.836800     3
    HGP1    NG311    SG3O2   CG3C31     9   180.000000     5.439200     1
    HGP1    NG311    SG3O2   CG3C31     9     0.000000     5.020800     2
    HGP1    NG311    SG3O2   CG3C31     9     0.000000     0.836800     3
    HGP1    NG311    SG3O2    NG311     9   180.000000     2.405800     1
    HGP1    NG311    SG3O2    NG311     9     0.000000     4.531272     2
    HGP1    NG311    SG3O2    NG311     9   180.000000     4.012456     3
    HGP1    NG311    SG3O2    NG311     9   180.000000     0.832616     4
    HGP1    NG311    SG3O2    NG311     9     0.000000     0.995792     6
    HGP1    NG311    SG3O2    OG2P1     9     0.000000     0.836800     3
    HGP1    NG311    SG3O3    NG2S1     9   180.000000     3.556400     2
    HGP1    NG311    SG3O3    NG2S1     9   180.000000     0.334720     3
    HGP1    NG311    SG3O3    OG2P1     9     0.000000     0.334720     2
    HGP1    NG311    SG3O3    OG2P1     9     0.000000     0.376560     3
    HGP1    NG321    OG301    CG321     9   180.000000     0.521745     3
    HGP1    NG321    SG3O2   CG2R51     9   180.000000     6.276000     1
    HGP1    NG321    SG3O2   CG2R51     9     0.000000     5.020800     2
    HGP1    NG321    SG3O2   CG2R51     9     0.000000     0.418400     3
    HGP1    NG321    SG3O2   CG2R53     9   180.000000     6.276000     1
    HGP1    NG321    SG3O2   CG2R53     9     0.000000     5.020800     2
    HGP1    NG321    SG3O2   CG2R53     9     0.000000     0.418400     3
    HGP1    NG321    SG3O2   CG2R61     9   180.000000     6.276000     1
    HGP1    NG321    SG3O2   CG2R61     9     0.000000     5.020800     2
    HGP1    NG321    SG3O2   CG2R61     9     0.000000     0.418400     3
    HGP1    NG321    SG3O2   CG2R62     9   180.000000     6.276000     1
    HGP1    NG321    SG3O2   CG2R62     9     0.000000     5.020800     2
    HGP1    NG321    SG3O2   CG2R62     9     0.000000     0.418400     3
    HGP1    NG321    SG3O2    CG311     9   180.000000     3.765600     1
    HGP1    NG321    SG3O2    CG311     9     0.000000     6.694400     2
    HGP1    NG321    SG3O2    CG311     9     0.000000     0.418400     3
    HGP1    NG321    SG3O2    CG331     9   180.000000     3.765600     1
    HGP1    NG321    SG3O2    CG331     9     0.000000     6.694400     2
    HGP1    NG321    SG3O2    CG331     9     0.000000     0.418400     3
    HGP1    NG321    SG3O2   NG3C51     9     0.000000     0.543920     1
    HGP1    NG321    SG3O2   NG3C51     9     0.000000     4.602400     2
    HGP1    NG321    SG3O2   NG3C51     9     0.000000     1.213360     3
    HGP1    NG321    SG3O2   NG3C51     9     0.000000     2.426720     6
    HGP1    NG321    SG3O2    OG2P1     9     0.000000     0.836800     3
    HGP1    NG321    SG3O2    OG303     9     0.000000     1.673600     3
    HGP1   NG3C51    NG3P2   CG3C54     9     0.000000    10.250800     1
    HGP1   NG3C51    NG3P2   CG3C54     9     0.000000     0.083680     3
    HGP1   NG3C51    NG3P2     HGP2     9     0.000000     0.000000     3
    HGP1   NG3C51   OG3C51   CG2R51     9     0.000000     9.480944     3
    HGP1   NG3C51   OG3C51   CG3C41     9   180.000000     4.351360     2
    HGP1   NG3C51   OG3C51   CG3C41     9     0.000000     0.543920     3
    HGP1   NG3C51   OG3C51   CG3C51     9     0.000000     0.028033     3
    HGP1   NG3C51    SG3O2   NG3C51     9     0.000000     2.092000     1
    HGP1   NG3C51    SG3O2   NG3C51     9   180.000000     2.301200     2
    HGP1   NG3C51    SG3O2   NG3C51     9     0.000000     3.096160     3
    HGP1   NG3C51    SG3O2   NG3C51     9   180.000000     0.041840     4
    HGP1   NG3C51    SG3O2   NG3C51     9   180.000000     3.096160     6
    HGP1   NG3C51    SG3O2    OG2P1     9     0.000000     0.418400     3
    HGP1   NG3C51    SG3O2    OG2P1     9     0.000000     2.594080     6
    HGP1   NG3C51    SG3O3   CG2R52     9   180.000000     0.167360     1
    HGP1   NG3C51    SG3O3   CG2R52     9     0.000000     3.179840     2
    HGP1   NG3C51    SG3O3   CG2R52     9   180.000000     0.083680     3
    HGP1   NG3C51    SG3O3   CG3RC1     9     0.000000     0.125520     1
    HGP1   NG3C51    SG3O3   CG3RC1     9   180.000000     2.259360     2
    HGP1   NG3C51    SG3O3   CG3RC1     9     0.000000     1.422560     3
    HGP1   NG3C51    SG3O3    OG2P1     9   180.000000     3.096160     3
    HGP1    NG3N1    NG3N1     HGP1     9   180.000000     4.602400     1
    HGP1    NG3N1    NG3N1     HGP1     9     0.000000    18.828000     2
    HGP1    NG3N1    NG3N1     HGP1     9     0.000000     0.209200     3
    HGP1    OG311      PG0    OG2P1     9     0.000000     1.255200     3
    HGP1    OG311      PG0    OG303     9   180.000000     6.694400     1
    HGP1    OG311      PG0    OG303     9     0.000000     3.765600     2
    HGP1    OG311      PG0    OG304     9   180.000000     6.694400     1
    HGP1    OG311      PG0    OG304     9     0.000000     3.765600     2
    HGP1    OG311      PG0    OG311     9     0.000000     1.255200     3
    HGP1    OG311      PG0    SG2P1     9     0.000000     1.255200     3
    HGP1    OG311      PG0    SG2P2     9     0.000000     1.255200     3
    HGP1    OG311      PG1    CG312     9   180.000000     0.836800     1
    HGP1    OG311      PG1    CG312     9     0.000000     6.694400     2
    HGP1    OG311      PG1    CG321     9   180.000000     2.510400     1
    HGP1    OG311      PG1    CG321     9     0.000000     4.602400     2
    HGP1    OG311      PG1    OG2P1     9     0.000000     1.255200     3
    HGP1    OG311      PG1    OG303     9   180.000000     6.694400     1
    HGP1    OG311      PG1    OG303     9     0.000000     3.765600     2
    HGP1    OG311      PG1    OG304     9   180.000000     6.694400     1
    HGP1    OG311      PG1    OG304     9     0.000000     3.765600     2
    HGP1    OG311      PG2    OG2S1     9     0.000000     1.556030     3
    HGP1    OG311      PG2    SG2P1     9   180.000000     8.629082     1
    HGP1    OG311      PG2    SG2P1     9     0.000000     4.313286     2
    HGP1    OG311      PG2    SG2P1     9     0.000000     1.117965     3
    HGP1    OG311    SG301    CG321     9     0.000000     1.672345     1
    HGP1    OG311    SG301    CG321     9     0.000000    11.917287     2
    HGP1    OG311    SG3O2   CG2R53     9   180.000000     0.209200     1
    HGP1    OG311    SG3O2   CG2R53     9     0.000000     0.083680     2
    HGP1    OG311    SG3O2   CG2R53     9     0.000000     2.175680     3
    HGP1    OG311    SG3O2   CG2R53     9     0.000000     1.171520     4
    HGP1    OG311    SG3O2   CG2R64     9     0.000000     4.518720     3
    HGP1    OG311    SG3O2    OG2P1     9     0.000000    14.141920     1
    HGP1    OG311    SG3O2    OG2P1     9   180.000000     1.422560     2
    HGP1    OG311    SG3O2    OG2P1     9   180.000000     0.836800     3
    HGP1    OG311    SG3O2    OG2P1     9     0.000000     0.000000     6
    HGP1    OG311    BG201   CG2R61     9     0.000000    33.452754     1
    HGP1    OG311    BG201   CG2RC0     9     0.000000    24.038754     1
    HGP1    OG311    BG201    CG321     9     0.000000     7.082257     1
    HGP1    OG311    BG201    CG331     9     0.000000     7.082257     1
    HGP1    OG311    BG201    OG2D2     9     0.000000     0.056902     1
    HGP1    OG311    BG201    OG311     9     0.000000    20.007470     1
    HGP1    OG311    BG201    OG311     9   180.000000    20.409134     2
    HGP1    OG311    BG201    OG311     9   180.000000     0.777387     3
    HGP1    OG311    BG201   OG3C51     9   180.000000     5.766389     3
   CG2O6    NG2S0    NG2S1     HGP1     9     0.000000     9.623200     2
   CG2O6    NG2S0   OG3C61    CG311     9     0.000000     8.535360     1
   CG2O6    NG2S0   OG3C61    CG311     9     0.000000    12.426480     2
   CG2O6    NG2S0   OG3C61    CG311     9   180.000000     7.196480     3
   CG2O6    NG2S0    SG3O2   CG2R61     9   180.000000     2.594080     3
   CG2O6    NG2S0    SG3O2    OG2P1     9     0.000000     2.761440     3
   CG2O6    NG2S0     CN7B     ON6B     9   180.000000     8.368000     1
   CG2O6    NG2S0     CN7B     ON6B     9     0.000000     3.765600     2
   CG2O6    NG2S0     CN7B     CN7B     9   180.000000     4.184000     1
   CG2O6    NG2S0     CN7B      HN7     9     0.000000     0.000000     3
   CG2O6    NG2S1    NG2S1     HGP1     9   180.000000     0.711280     2
   CG334    NG3P0    OG311     HGP1     9     0.000000     1.158968     3
     PG0    OG304      PG0    OG2P1     9     0.000000     0.418400     2
     PG0    OG304      PG0    OG2P1     9     0.000000     0.125520     3
     PG0    OG304      PG0    OG303     9     0.000000     0.125520     2
     PG0    OG304      PG0    OG303     9     0.000000     0.125520     3
     PG0    OG304      PG0    OG304     9     0.000000     0.125520     2
     PG0    OG304      PG0    OG304     9     0.000000     0.125520     3
     PG0    OG304      PG0    OG311     9     0.000000     0.418400     2
     PG0    OG304      PG0    OG311     9     0.000000     0.125520     3
     PG0    OG304      PG0    SG2P1     9     0.000000     0.125520     3
     PG0    OG304      PG0    SG2P2     9     0.000000     0.125520     3
   OG2S1      PG2    SG2P1    CG321     9     0.000000     2.988631     3
   OG2S1      PG2    SG2P1    CG321     9     0.000000     0.119662     4
   CC312    CC312    CC312    CC2O3     9   180.000000     0.083680     1
   CC312    CC312    CC312    CC2O3     9     0.000000     0.251040     2
   CC312    CC312    CC312    CC2O3     9     0.000000    10.334480     3
   CC312    CC312    CC312    CC2O4     9   180.000000     0.083680     1
   CC312    CC312    CC312    CC2O4     9     0.000000     0.251040     2
   CC312    CC312    CC312    CC2O4     9     0.000000    10.334480     3
   CC312    CC312    CC312    CC322     9   180.000000     0.083680     1
   CC312    CC312    CC312    CC322     9     0.000000     0.251040     2
   CC312    CC312    CC312    CC322     9     0.000000    10.334480     3
   CC312    CC312    CC312    CC312     9   180.000000     0.083680     1
   CC312    CC312    CC312    CC312     9     0.000000     0.251040     2
   CC312    CC312    CC312    CC312     9     0.000000    10.334480     3
   CC312    CC312    CC312    OC311     9     0.000000     1.464400     1
   CC312    CC312    CC312    OC311     9     0.000000     2.886960     2
   CC312    CC312    CC312    OC311     9   180.000000    11.673360     3
   CC312    CC312    CC312     HCA1     9     0.000000     0.836800     3
   CC312    CC312    CC2O3    CC322     9   180.000000     0.083680     1
   CC312    CC312    CC2O3    CC322     9     0.000000     0.251040     2
   CC312    CC312    CC2O3    CC322     9     0.000000    10.334480     3
   CC312    CC312    CC2O3    OC2D3     9     0.000000     8.619040     1
   CC312    CC312    CC2O3    OC2D3     9     0.000000     0.543920     2
   CC312    CC312    CC2O3    OC2D3     9     0.000000    12.008080     3
   CC312    CC312    CC2O4    OC2D4     9   180.000000     0.711280     1
   CC312    CC312    CC2O4    OC2D4     9   180.000000     1.087840     2
   CC312    CC312    CC2O4    OC2D4     9   180.000000     4.351360     3
   CC312    CC312    CC2O4     HCR1     9   180.000000     0.000000     6
   CC312    CC312   CC3163   OC3C61     9     0.000000     0.836800     3
   CC312    CC312    CC322    OC311     9     0.000000     1.464400     1
   CC312    CC312    CC322    OC311     9     0.000000     2.886960     2
   CC312    CC312    CC322    OC311     9   180.000000    11.673360     3
   CC312    CC312    CC322     HCA2     9     0.000000     0.836800     3
   CC312    CC312    CC322    OC301     9     0.000000     2.479857     1
   CC312    CC312    CC322    OC301     9   180.000000     5.422882     2
   CC312    CC312    CC322    OC301     9     0.000000     9.107313     3
   CC312    CC312    OC311     HCP1     9     0.000000     1.464400     1
   CC312    CC312    OC311     HCP1     9     0.000000     1.548080     2
   CC312    CC312    OC311     HCP1     9   180.000000     0.794960     3
   CC312    CC312    OC301   CC3062     9   180.000000    12.944041     1
   CC312    CC312    OC301   CC3062     9   180.000000     2.968966     2
   CC312    CC312    OC301   CC3062     9     0.000000     0.102508     3
   CC312    CC2O3    CC322    OC311     9     0.000000    12.300960     1
   CC312    CC2O3    CC322    OC311     9   180.000000     6.192320     2
   CC312    CC2O3    CC322    OC311     9   180.000000     2.092000     3
   CC312    CC2O3    CC322     HCA2     9     0.000000     0.418400     3
   CC312   CC3163   CC3161    NC2D1     9     0.000000     0.836800     3
   CC312   CC3163   OC3C61   CC3062     9     0.000000     0.836800     3
   CC312    CC322    OC311     HCP1     9     0.000000     1.464400     1
   CC312    CC322    OC311     HCP1     9     0.000000     1.548080     2
   CC312    CC322    OC311     HCP1     9   180.000000     0.794960     3
   CC312    CC322    OC301   CC3062     9   180.000000    10.650372     1
   CC312    CC322    OC301   CC3062     9   180.000000     3.312891     2
   CC312    CC322    OC301   CC3062     9   180.000000     4.028355     3
   CC2O3    CC312    CC312    OC311     9   180.000000    10.962080     1
   CC2O3    CC312    CC312    OC311     9   180.000000     1.171520     2
   CC2O3    CC312    CC312    OC311     9     0.000000     9.539520     3
   CC2O3    CC312    CC312     HCA1     9     0.000000     0.418400     3
   CC2O3    CC312    OC311     HCP1     9     0.000000     1.464400     1
   CC2O3    CC312    OC311     HCP1     9     0.000000     1.548080     2
   CC2O3    CC312    OC311     HCP1     9   180.000000     0.794960     3
   CC2O3    CC322    OC311     HCP1     9     0.000000     1.464400     1
   CC2O3    CC322    OC311     HCP1     9     0.000000     1.548080     2
   CC2O3    CC322    OC311     HCP1     9   180.000000     0.794960     3
   CC322    CC2O3    CC322    OC311     9     0.000000     4.309520     1
   CC322    CC2O3    CC322    OC311     9   180.000000    10.208960     2
   CC322    CC2O3    CC322    OC311     9   180.000000     5.188160     3
   CC322    CC2O3    CC322     HCA2     9     0.000000     0.418400     3
   CC322    CC2O3    CC312    OC311     9     0.000000     4.309520     1
   CC322    CC2O3    CC312    OC311     9   180.000000    10.208960     2
   CC322    CC2O3    CC312    OC311     9   180.000000     5.188160     3
   CC322    CC2O3    CC312     HCA1     9     0.000000     0.418400     3
   CC322    CC312    CC312    CC322     9   180.000000     0.083680     1
   CC322    CC312    CC312    CC322     9     0.000000     0.251040     2
   CC322    CC312    CC312    CC322     9     0.000000    10.334480     3
   CC322    CC312    CC312    OC311     9     0.000000     1.464400     1
   CC322    CC312    CC312    OC311     9     0.000000     2.886960     2
   CC322    CC312    CC312    OC311     9   180.000000    11.673360     3
   CC322    CC312    CC322    OC311     9     0.000000     1.464400     1
   CC322    CC312    CC322    OC311     9     0.000000     2.886960     2
   CC322    CC312    CC322    OC311     9   180.000000    11.673360     3
   CC322    CC312    CC322     HCA2     9     0.000000     0.836800     3
   CC322    CC312    OC311     HCP1     9     0.000000     1.464400     1
   CC322    CC312    OC311     HCP1     9     0.000000     1.548080     2
   CC322    CC312    OC311     HCP1     9   180.000000     0.794960     3
   CC322    CC312    OC301   CC3062     9   180.000000    17.951452     1
   CC322    CC312    OC301   CC3062     9   180.000000     2.021290     2
   CC322    CC312    OC301   CC3062     9   180.000000     0.204179     3
   OC2D3    CC2O3    CC312    OC311     9     0.000000     8.744560     1
   OC2D3    CC2O3    CC312    OC311     9   180.000000     0.711280     2
   OC2D3    CC2O3    CC312    OC311     9   180.000000     8.995600     3
   OC2D3    CC2O3    CC312     HCA1     9     0.000000     0.000000     3
   OC2D3    CC2O3    CC322    OC311     9     0.000000    11.715200     1
   OC2D3    CC2O3    CC322    OC311     9   180.000000     3.138000     2
   OC2D3    CC2O3    CC322    OC311     9   180.000000     1.338880     3
   OC2D3    CC2O3    CC322     HCA2     9     0.000000     0.000000     3
   OC2D3    CC2O3    CC331     HCA3     9     0.000000     0.000000     3
   CC331    CC2O3    CC331     HCA3     9     0.000000     0.418400     3
   CC331   CC3163   CC3161    OC311     9     0.000000     0.836800     3
   CC331   CC3163   CC3161    OC301     9     0.000000     0.836800     3
   CC331   CC3163   CC3161    NC2D1     9     0.000000     0.836800     3
   CC331   CC3163   OC3C61   CC3162     9     0.000000     0.836800     3
   CC331    OC301    CC311    CC331     9     0.000000     1.673600     1
   CC331    OC301    CC311    CC331     9     0.000000     2.050160     3
   CC331    OC301    CC301    CC331     9     0.000000     1.673600     1
   CC331    OC301    CC301    CC331     9     0.000000     2.050160     3
   CC331    OC301   CC311D     HCA1     9     0.000000     1.188256     3
   CC331    OC301   CC311D   OC3C61     9     0.000000     0.585760     1
   CC331    OC301   CC311D   OC3C61     9     0.000000     4.058480     2
   CC331    OC301   CC311D   OC3C61     9   180.000000     0.460240     3
   CC331    OC301   CC3162     HCA1     9     0.000000     1.188256     3
   CC331    OC301   CC3162   OC3C61     9     0.000000     0.585760     1
   CC331    OC301   CC3162   OC3C61     9     0.000000     4.058480     2
   CC331    OC301   CC3162   OC3C61     9   180.000000     0.460240     3
   CC331    OC301    CC321     HCA2     9     0.000000     1.188256     3
   CC331    OC301   CC312C   OC3C5M     9     0.000000     0.334720     1
   CC331    OC301   CC312C   OC3C5M     9     0.000000     3.179840     2
   CC331    OC301   CC312C   OC3C5M     9     0.000000     4.937120     3
   CC331    OC301   CC3152   OC3C51     9     0.000000     0.334720     1
   CC331    OC301   CC3152   OC3C51     9     0.000000     3.179840     2
   CC331    OC301   CC3152   OC3C51     9     0.000000     4.937120     3
   CC331    OC301   CC312D   OC3C5M     9     0.000000     4.100320     2
   CC331    OC301   CC312D   OC3C5M     9     0.000000     6.276000     3
   CC331    NC2D1    CC2O1    CC331     9     0.000000     6.694400     1
   CC331    NC2D1    CC2O1    CC331     9   180.000000    10.460000     2
   CC331    CC311    CC331     HCA3     9     0.000000     0.836800     3
   CC331    CC321    CC321     HCA2     9     0.000000     0.794960     3
   CC331   CC312C   CC312C    CC331     9     0.000000     0.836800     3
   CC331   CC312C   CC322C   CC322C     9     0.000000     0.836800     3
   CC331   CC312C   CC322C   HCA2C2     9     0.000000     0.836800     3
   CC331   CC312C   OC3C5M   CC322C     9     0.000000     1.255200     3
   CC331      NHL        C        O     9   180.000000    10.460000     2
   CC331      NHL        C     CTL2     9     0.000000     6.694400     1
   CC331      NHL        C     CTL2     9   180.000000    10.460000     2
   CC331      NHL    CC322     HCA2     9     0.000000     0.000000     1
   CC331      NHL    CC322    CC312     9     0.000000     6.694400     1
   CC331      NHL    CC322    CC312     9   180.000000    10.460000     2
   CC2O4    CC312    CC312    OC311     9     0.000000     4.811600     1
   CC2O4    CC312    CC312    OC311     9     0.000000    12.552000     2
   CC2O4    CC312    CC312    OC311     9   180.000000     9.999760     3
   CC2O4    CC312    CC312     HCA1     9     0.000000     0.836800     3
   OC2D4    CC2O4    CC312    OC311     9   180.000000     2.343040     1
   OC2D4    CC2O4    CC312    OC311     9   180.000000     6.694400     2
   OC2D4    CC2O4    CC312    OC311     9     0.000000     3.891120     3
   OC2D4    CC2O4    CC312     HCA1     9   180.000000     0.000000     6
   OC2D4    CC2O4    CC331     HCA3     9   180.000000     0.836800     3
    HCP1    OC311    CC312    CC2O4     9     0.000000     1.464400     1
    HCP1    OC311    CC312    CC2O4     9     0.000000     1.548080     2
    HCP1    OC311    CC312    CC2O4     9   180.000000     0.794960     3
    HCP1    OC311    CC312     HCA1     9     0.000000     0.753120     3
    HCP1    OC311   CC3161     HCA1     9     0.000000     0.753120     3
    HCP1    OC311   CC3162     HCA1     9     0.000000     0.753120     3
    HCP1    OC311   CC3162   OC3C61     9     0.000000     6.485200     1
    HCP1    OC311   CC3162   OC3C61     9     0.000000     4.895280     2
    HCP1    OC311   CC3162   OC3C61     9     0.000000     4.476880     3
    HCP1    OC311    CC321     HCA2     9     0.000000     0.753120     3
    HCP1    OC311    CC322     HCA2     9     0.000000     0.753120     3
    HCP1    OC311    CC301    CC331     9     0.000000     4.727920     1
    HCP1    OC311    CC301    CC331     9     0.000000     0.585760     2
    HCP1    OC311    CC301    CC331     9     0.000000     1.004160     3
    HCP1    OC311    CC301    OC301     9     0.000000     6.485200     1
    HCP1    OC311    CC301    OC301     9     0.000000     4.895280     2
    HCP1    OC311    CC301    OC301     9     0.000000     4.476880     3
    HCP1    OC311   CC3062   OC3C61     9     0.000000     6.485200     1
    HCP1    OC311   CC3062   OC3C61     9     0.000000     4.895280     2
    HCP1    OC311   CC3062   OC3C61     9     0.000000     4.476880     3
    HCP1    OC311   CC3152     HCA1     9     0.000000     0.753120     3
    HCP1    OC311   CC3151     HCA1     9     0.000000     0.753120     3
    HCP1    NC2D1   CC3161   CC3161     9     0.000000     0.000000     1
    HCP1    NC2D1   CC3161   CC3162     9     0.000000     0.000000     1
    HCP1    NC2D1   CC3161   CC3163     9     0.000000     0.000000     1
    HCP1    NC2D1   CC3161     HCA1     9     0.000000     0.000000     1
    HCP1    NC2D1    CC311    CC331     9     0.000000     0.000000     1
    HCP1    NC2D1    CC311     HCA1     9     0.000000     0.000000     1
    HCP1    NC2D1    CC2O1    CC331     9   180.000000    10.460000     2
    HCP1    NC2D1    CC2O1    OC2D1     9   180.000000    10.460000     2
    HCP1    NC2D1    CC331     HCA3     9     0.000000     0.000000     3
    HCP1    NC2D1   CC311D   OC3C61     9     0.000000     0.000000     1
    HCP1    NC2D1   CC311D     HCA1     9     0.000000     0.000000     1
    HCP1    NC2D1   CC311D   CC321C     9     0.000000     0.000000     1
    HCP1    NC2D1   CC3162   OC3C61     9     0.000000     0.000000     1
    HCP1    NC2D1   CC3162   CC3161     9     0.000000     0.000000     1
    HCP1   OC311M    CC321    CC331     9     0.000000     4.727920     1
    HCP1   OC311M    CC321    CC331     9     0.000000     0.585760     2
    HCP1   OC311M    CC321    CC331     9     0.000000     1.004160     3
    HCP1   OC311M    CC321    CC321     9     0.000000     0.083680     1
    HCP1   OC311M    CC321    CC321     9     0.000000     2.343040     2
    HCP1   OC311M    CC321    CC321     9     0.000000     2.050160     3
    HCP1   OC311M    CC311    CC331     9     0.000000     4.727920     1
    HCP1   OC311M    CC311    CC331     9     0.000000     0.585760     2
    HCP1   OC311M    CC311    CC331     9     0.000000     1.004160     3
    HCP1    NC311   CC3161     HCA1     9     0.000000     0.418400     3
    HCP1    NC311   CC3161   CC3161     9     0.000000     0.418400     3
    HCP1    NC311   CC3161   CC3162     9     0.000000     0.418400     3
    HCR1    CC2O4    CC331     HCA3     9   180.000000     0.000000     3
   OC311    CC312    CC2O4     HCR1     9   180.000000     0.000000     6
   OC311    CC312    CC322    OC311     9   180.000000     5.606560     1
   OC311    CC312    CC322    OC311     9     0.000000     4.978960     2
   OC311    CC312    CC322    OC311     9     0.000000    10.794720     3
   OC311    CC312    CC322    OC301     9   180.000000    13.869960     1
   OC311    CC312    CC322    OC301     9   180.000000     7.040835     2
   OC311    CC312    CC322    OC301     9   180.000000    12.357026     3
   OC311    CC312    CC312    OC311     9   180.000000     5.606560     1
   OC311    CC312    CC312    OC311     9     0.000000     4.978960     2
   OC311    CC312    CC312    OC311     9     0.000000    10.794720     3
   OC311    CC312   CC3163   OC3C61     9   180.000000     3.138000     1
   OC311    CC312   CC3163   OC3C61     9     0.000000     0.711280     2
   OC311    CC312   CC3163   OC3C61     9   180.000000     1.046000     3
   OC311   CC3161   CC3161    OC311     9   180.000000    11.087600     1
   OC311   CC3161   CC3161    OC311     9     0.000000     0.000000     2
   OC311   CC3161   CC3161    OC311     9   180.000000     0.543920     3
   OC311   CC3161   CC3161    NC2D1     9     0.000000     0.836800     3
   OC311   CC3161   CC3162   OC3C61     9   180.000000    11.506000     1
   OC311   CC3161   CC3162   OC3C61     9   180.000000     1.087840     2
   OC311   CC3161   CC3162   OC3C61     9     0.000000     0.418400     3
   OC311   CC3161   CC3163   OC3C61     9   180.000000     5.690240     1
   OC311   CC3161   CC3163   OC3C61     9     0.000000     0.669440     2
   OC311   CC3161   CC3163   OC3C61     9     0.000000     4.225840     3
   OC311   CC3161   CC3263   OC3C61     9   180.000000     5.690240     1
   OC311   CC3161   CC3263   OC3C61     9     0.000000     0.669440     2
   OC311   CC3161   CC3263   OC3C61     9     0.000000     4.225840     3
   OC311   CC3162   CC3161    OC311     9   180.000000    11.087600     1
   OC311   CC3162   CC3161    OC311     9     0.000000     0.000000     2
   OC311   CC3162   CC3161    OC311     9   180.000000     0.543920     3
   OC311   CC3162   CC3161    NC2D1     9     0.000000     0.836800     3
   OC311   CC3162   CC3161    OC30P     9   180.000000    10.460000     1
   OC311   CC3162   CC3161    OC30P     9     0.000000     8.368000     2
   OC311   CC3162   CC3161    OC30P     9     0.000000    10.460000     3
   OC311    CC301    CC2O2    OC2D2     9   180.000000     4.644240     2
   OC311    CC301    OC301    CC331     9   180.000000     1.715440     1
   OC311    CC301    OC301    CC331     9     0.000000     3.723760     2
   OC311    CC301    OC301    CC331     9     0.000000     0.209200     3
   OC311   CC3062    CC2O2    OC2D2     9   180.000000     4.644240     2
   OC311    CC321   CC3163   OC3C61     9   180.000000     3.138000     1
   OC311    CC321   CC3163   OC3C61     9     0.000000     0.711280     2
   OC311    CC321   CC3163   OC3C61     9   180.000000     1.046000     3
   OC311    CC321   CC3153     HCA1     9     0.000000     0.585760     3
   OC311   CC3152   CC3251     HCA2     9     0.000000     0.585760     3
   OC311   CC3152   CC3151     HCA1     9     0.000000     0.585760     3
   OC311   CC3152   CC3151    OC311     9   180.000000    12.008080     1
   OC311   CC3152   CC3151    OC311     9     0.000000     0.125520     2
   OC311   CC3152   CC3151    OC311     9     0.000000     0.962320     3
   OC311   CC3152   OC3C51   CC3153     9   180.000000     3.179840     1
   OC311   CC3152   OC3C51   CC3153     9     0.000000     5.230000     2
   OC311   CC3152   OC3C51   CC3153     9   180.000000     2.008320     3
   OC311   CC3051   CC3251     HCA2     9     0.000000     0.585760     3
   OC311   CC3051    CC321     HCA2     9     0.000000     0.585760     3
   OC311   CC3051    CC321    OC311     9     0.000000     0.292880     1
   OC311   CC3051    CC321    OC311     9   180.000000     8.326160     2
   OC311   CC3051    CC321    OC311     9   180.000000     7.196480     3
   OC311   CC3051   CC3151     HCA1     9     0.000000     0.585760     3
   OC311   CC3051   CC3151    OC311     9   180.000000     0.502080     1
   OC311   CC3051   CC3151    OC311     9   180.000000     7.824080     2
   OC311   CC3051   CC3151    OC311     9   180.000000     6.861760     3
   OC311   CC3051   OC3C51   CC3153     9   180.000000     0.794960     1
   OC311   CC3051   OC3C51   CC3153     9   180.000000    11.924400     2
   OC311   CC3051   OC3C51   CC3153     9     0.000000     3.598240     3
   OC311   CC3151   CC3251     HCA2     9     0.000000     0.585760     3
   OC311   CC3151   CC3153     HCA1     9     0.000000     0.585760     3
   OC311   CC3151   CC3152     HCA1     9     0.000000     0.585760     3
   OC311   CC3151   CC3151     HCA1     9     0.000000     0.585760     3
   OC311   CC3151   CC3151    OC311     9   180.000000    12.008080     1
   OC311   CC3151   CC3151    OC311     9     0.000000     0.125520     2
   OC311   CC3151   CC3151    OC311     9     0.000000     0.962320     3
  CC3161   CC3161   CC3161   CC3162     9   180.000000     0.794960     3
  CC3161   CC3161   CC3161   CC3163     9   180.000000     0.794960     3
  CC3161   CC3161   CC3161   CC3263     9   180.000000     0.794960     3
  CC3161   CC3161   CC3161   CC3161     9   180.000000     9.665040     3
  CC3161   CC3161   CC3161    OC311     9     0.000000     0.836800     3
  CC3161   CC3161   CC3161    OC301     9     0.000000     0.836800     3
  CC3161   CC3161   CC3161    OC30P     9     0.000000     7.363840     1
  CC3161   CC3161   CC3161    OC30P     9     0.000000    10.711040     2
  CC3161   CC3161   CC3161    OC30P     9     0.000000     0.041840     3
  CC3161   CC3161   CC3261   CC3062     9   180.000000     0.794960     3
  CC3161   CC3161   CC3163    CC321     9     0.000000     0.836800     3
  CC3161   CC3161   CC3163    CC331     9     0.000000     0.836800     3
  CC3161   CC3161   CC3163    CC2O2     9     0.000000     0.836800     3
  CC3161   CC3161   CC3163    CC312     9     0.000000     0.836800     3
  CC3161   CC3161   CC3163   OC3C61     9   180.000000     1.297040     3
  CC3161   CC3161   CC3162   OC3C61     9   180.000000     1.297040     3
  CC3161   CC3161   CC3162    OC311     9     0.000000     0.836800     3
  CC3161   CC3161   CC3162    OC301     9     0.000000     0.836800     3
  CC3161   CC3161   CC3162    OC302     9     0.000000     0.836800     3
  CC3161   CC3161   CC3162    OC30P     9     0.000000     7.363840     1
  CC3161   CC3161   CC3162    OC30P     9     0.000000    10.711040     2
  CC3161   CC3161   CC3162    OC30P     9     0.000000     0.041840     3
  CC3161   CC3161   CC3162    OC303     9     0.000000     0.836800     3
  CC3161   CC3161   CC3162    OG303     9     0.000000     7.363840     1
  CC3161   CC3161   CC3162    OG303     9     0.000000    10.711040     2
  CC3161   CC3161   CC3162    OG303     9     0.000000     0.041840     3
  CC3161   CC3161   CC3263   OC3C61     9   180.000000     1.297040     3
  CC3161   CC3161    OC301   CC3162     9   180.000000     0.543920     1
  CC3161   CC3161    OC301   CC3162     9   180.000000     1.046000     2
  CC3161   CC3161    OC301   CC3162     9   180.000000     0.251040     3
  CC3161   CC3161    OC301   CC3062     9   180.000000     0.543920     1
  CC3161   CC3161    OC301   CC3062     9   180.000000     1.046000     2
  CC3161   CC3161    OC301   CC3062     9   180.000000     0.251040     3
  CC3161   CC3161    OC301    CC2O5     9   180.000000     0.543920     1
  CC3161   CC3161    OC301    CC2O5     9   180.000000     1.046000     2
  CC3161   CC3161    OC301    CC2O5     9   180.000000     0.251040     3
  CC3161   CC3161    OC311     HCP1     9     0.000000     1.213360     1
  CC3161   CC3161    OC311     HCP1     9     0.000000     2.594080     2
  CC3161   CC3161    OC311     HCP1     9     0.000000     0.209200     3
  CC3161   CC3161    OC30P       PC     9   180.000000     0.083680     3
  CC3161   CC3161    OC30P       SC     9     0.000000     0.878640     3
  CC3161   CC3161    OC30P       PL     9   180.000000     0.083680     3
  CC3161   CC3161    NC311       SC     9     0.000000     0.673624     3
  CC3161   CC3261   CC3062    CC2O2     9     0.000000     0.836800     3
  CC3161   CC3261   CC3062   OC3C61     9   180.000000     1.297040     3
  CC3161   CC3261   CC3062    OC311     9     0.000000     0.836800     3
  CC3161   CC3261   CC3062    OC301     9     0.000000     0.836800     3
  CC3161   CC3261   CC3161   CC3162     9   180.000000     0.794960     3
  CC3161   CC3261   CC3161   CC3163     9   180.000000     0.794960     3
  CC3161   CC3261   CC3161    OC311     9     0.000000     0.836800     3
  CC3161   CC3261   CC3161    OC301     9     0.000000     0.836800     3
  CC3161   CC3163    CC312    CC312     9     0.000000     0.836800     3
  CC3161   CC3163    CC312    OC311     9     0.000000     0.836800     3
  CC3161   CC3163    CC321    OC311     9     0.000000     0.836800     3
  CC3161   CC3163    CC321    OC301     9   180.000000     2.092000     1
  CC3161   CC3163    CC321    OC301     9   180.000000     1.548080     2
  CC3161   CC3163    CC321    OC301     9     0.000000     0.627600     3
  CC3161   CC3163    CC321    OC30P     9     0.000000     1.799120     3
  CC3161   CC3163    CC2O2    OC2D2     9   180.000000     0.209200     6
  CC3161   CC3163   OC3C61   CC3162     9     0.000000     0.836800     3
  CC3161   CC3163   OC3C61   CC3062     9     0.000000     0.836800     3
  CC3161   CC3162   OC3C61   CC3163     9     0.000000     0.836800     3
  CC3161   CC3162   OC3C61   CC3263     9     0.000000     0.836800     3
  CC3161   CC3162    OC301    CC331     9     0.000000     0.920480     1
  CC3161   CC3162    OC301    CC331     9   180.000000     1.171520     2
  CC3161   CC3162    OC301    CC331     9     0.000000     3.723760     3
  CC3161   CC3162    OC301    CC321     9     0.000000     0.920480     1
  CC3161   CC3162    OC301    CC321     9   180.000000     1.171520     2
  CC3161   CC3162    OC301    CC321     9     0.000000     3.723760     3
  CC3161   CC3162    OC301   CC3161     9   180.000000     1.715440     1
  CC3161   CC3162    OC301   CC3161     9   180.000000     2.761440     2
  CC3161   CC3162    OC301   CC3161     9     0.000000     6.694400     3
  CC3161   CC3162    OC301      CT2     9   180.000000     5.773920     1
  CC3161   CC3162    OC301      CT2     9   180.000000     5.146320     2
  CC3161   CC3162    OC301      CT2     9     0.000000     1.046000     3
  CC3161   CC3162    OC301      CT1     9   180.000000     4.811600     1
  CC3161   CC3162    OC301      CT1     9   180.000000     6.443360     2
  CC3161   CC3162    OC301      CT1     9     0.000000     1.631760     3
  CC3161   CC3162    OC301     CTL2     9   180.000000     2.426720     1
  CC3161   CC3162    OC301     CTL2     9   180.000000     2.886960     2
  CC3161   CC3162    OC301     CTL2     9     0.000000     4.853440     3
  CC3161   CC3162    OC301     CTO2     9     0.000000     0.920480     1
  CC3161   CC3162    OC301     CTO2     9   180.000000     1.171520     2
  CC3161   CC3162    OC301     CTO2     9     0.000000     3.723760     3
  CC3161   CC3162    OC301     CTL1     9   180.000000     2.426720     1
  CC3161   CC3162    OC301     CTL1     9   180.000000     2.886960     2
  CC3161   CC3162    OC301     CTL1     9     0.000000     4.853440     3
  CC3161   CC3162    OC302   CC3162     9     0.000000     3.054320     1
  CC3161   CC3162    OC302   CC3162     9   180.000000     2.552240     2
  CC3161   CC3162    OC302   CC3162     9   180.000000     0.000000     3
  CC3161   CC3162    OC311     HCP1     9     0.000000     1.213360     1
  CC3161   CC3162    OC311     HCP1     9     0.000000     2.594080     2
  CC3161   CC3162    OC311     HCP1     9     0.000000     0.209200     3
  CC3161   CC3162    OC30P       PC     9   180.000000     0.083680     3
  CC3161   CC3162    OC303   CC3151     9   180.000000     0.209200     1
  CC3161   CC3162    OC303   CC3151     9   180.000000     1.589920     2
  CC3161   CC3162    OC303   CC3151     9     0.000000     1.506240     3
  CC3161   CC3162    OG303      PG1     9   180.000000     0.083680     3
  CC3161   CC3162    OG301   CG3C51     9     0.000000     1.882800     3
  CC3161   CC3263   OC3C61   CC3162     9     0.000000     0.836800     3
  CC3161    NC2D1    CC2O1    CC331     9     0.000000     6.694400     1
  CC3161    NC2D1    CC2O1    CC331     9   180.000000    10.460000     2
  CC3161    OC301   CC3162     HCA1     9     0.000000     1.188256     3
  CC3161    OC301   CC3162   OC3C61     9   180.000000     0.209200     1
  CC3161    OC301   CC3162   OC3C61     9     0.000000     3.807440     2
  CC3161    OC301   CC3162   OC3C61     9   180.000000     5.313680     3
  CC3161    OC301   CC3062   OC3C61     9   180.000000     0.209200     1
  CC3161    OC301   CC3062   OC3C61     9     0.000000     3.807440     2
  CC3161    OC301   CC3062   OC3C61     9   180.000000     5.313680     3
  CC3161    OC301   CC3062    CC2O2     9     0.000000     1.188256     3
  CC3161    OC301   CC3152   OC3C51     9   180.000000     2.175680     1
  CC3161    OC301   CC3152   OC3C51     9     0.000000     6.276000     2
  CC3161    OC301   CC3152   OC3C51     9     0.000000     4.100320     3
  CC3161    OC301   CC3152   CC3151     9   180.000000     4.978960     1
  CC3161    OC301   CC3152   CC3151     9   180.000000     0.669440     2
  CC3161    OC301   CC3152   CC3151     9   180.000000     2.050160     3
  CC3161    OC301   CC3152     HCA1     9     0.000000     1.188256     3
  CC3161    OC301    CC2O5    OC2D1     9   180.000000     4.037560     1
  CC3161    OC301    CC2O5    OC2D1     9   180.000000    16.108400     2
  CC3161    OC301    CC2O5    CC331     9   180.000000     8.577200     2
  CC3161    OC301     CTL2     HAL2     9     0.000000     1.188256     3
  CC3161    OC301     CTL2     CTL2     9     0.000000     1.673600     1
  CC3161    OC301     CTL2     CTL2     9     0.000000     2.050160     3
  CC3161    OC30P       PC    OC2DP     9     0.000000     1.380720     3
  CC3161    OC30P       PC    OC312     9     0.000000     6.066800     2
  CC3161    OC30P       SC    OC2DP     9     0.000000     0.711280     3
  CC3161    OC30P       PL    OC2DP     9     0.000000     1.380720     3
  CC3161    OC30P       PL     OSLP     9     0.000000     6.066800     2
  CC3161    OC30P       PL      O2L     9     0.000000     1.380720     3
  CC3161    NC311       SC    OC2DP     9     0.000000     0.640152     3
  CC3261   CC3161   CC3161   CC3163     9   180.000000     0.794960     3
  CC3261   CC3161    OC311     HCP1     9     0.000000     1.213360     1
  CC3261   CC3161    OC311     HCP1     9     0.000000     2.594080     2
  CC3261   CC3161    OC311     HCP1     9     0.000000     0.209200     3
  CC3261   CC3161   CC3163    CC331     9     0.000000     0.836800     3
  CC3261   CC3161   CC3163   OC3C61     9   180.000000     1.297040     3
  CC3261   CC3161   CC3162   OC3C61     9   180.000000     1.297040     3
  CC3261   CC3161   CC3162    OC311     9     0.000000     0.836800     3
  CC3261   CC3161   CC3162    OC301     9     0.000000     0.836800     3
  CC3261   CC3161    OC301    CC2O5     9   180.000000     4.246760     1
  CC3261   CC3161    OC301    CC2O5     9     0.000000     1.903720     2
  CC3261   CC3161    OC301    CC2O5     9   180.000000     4.322072     3
  CC3261   CC3062   OC3C61   CC3163     9     0.000000     0.836800     3
  CC3261   CC3062    OC311     HCP1     9     0.000000     1.213360     1
  CC3261   CC3062    OC311     HCP1     9     0.000000     2.594080     2
  CC3261   CC3062    OC311     HCP1     9     0.000000     0.209200     3
  CC3261   CC3062    OC301   CC3161     9   180.000000     1.715440     1
  CC3261   CC3062    OC301   CC3161     9   180.000000     2.761440     2
  CC3261   CC3062    OC301   CC3161     9     0.000000     6.694400     3
  CC3261   CC3062    OC301    CC321     9     0.000000     0.920480     1
  CC3261   CC3062    OC301    CC321     9   180.000000     1.171520     2
  CC3261   CC3062    OC301    CC321     9     0.000000     3.723760     3
  CC3261   CC3062    OC301    CC312     9   180.000000     6.415746     1
  CC3261   CC3062    OC301    CC312     9     0.000000     6.666367     2
  CC3261   CC3062    OC301    CC312     9     0.000000     5.778522     3
  CC3261   CC3062    OC301    CC322     9   180.000000     1.395782     1
  CC3261   CC3062    OC301    CC322     9     0.000000     0.143093     2
  CC3261   CC3062    OC301    CC322     9   180.000000     3.054738     3
  CC3163    CC312    CC312    CC322     9     0.000000     0.836800     3
  CC3163    CC312    CC312    OC311     9     0.000000     0.836800     3
  CC3163    CC312    CC312     HCA1     9     0.000000     0.836800     3
  CC3163    CC312    CC312    OC301     9   180.000000     1.056042     1
  CC3163    CC312    CC312    OC301     9     0.000000     1.919201     2
  CC3163    CC312    CC312    OC301     9   180.000000     4.940049     3
  CC3163    CC312    OC311     HCP1     9     0.000000     1.213360     1
  CC3163    CC312    OC311     HCP1     9     0.000000     2.594080     2
  CC3163    CC312    OC311     HCP1     9     0.000000     0.209200     3
  CC3163   CC3161   CC3161    OC311     9     0.000000     0.836800     3
  CC3163   CC3161   CC3161    OC301     9     0.000000     0.836800     3
  CC3163   CC3161   CC3161    OC30P     9     0.000000     7.363840     1
  CC3163   CC3161   CC3161    OC30P     9     0.000000    10.711040     2
  CC3163   CC3161   CC3161    OC30P     9     0.000000     0.041840     3
  CC3163   CC3161    OC301   CC3162     9   180.000000     0.543920     1
  CC3163   CC3161    OC301   CC3162     9   180.000000     1.046000     2
  CC3163   CC3161    OC301   CC3162     9   180.000000     0.251040     3
  CC3163   CC3161    NC2D1    CC2O1     9     0.000000     3.578994     1
  CC3163   CC3161    NC2D1    CC2O1     9     0.000000     1.867738     2
  CC3163   CC3161    NC2D1    CC2O1     9   180.000000     3.548032     3
  CC3163   CC3161    NC2D1    CC2O1     9   180.000000     1.695775     6
  CC3163   CC3161    OC311     HCP1     9     0.000000     1.213360     1
  CC3163   CC3161    OC311     HCP1     9     0.000000     2.594080     2
  CC3163   CC3161    OC311     HCP1     9     0.000000     0.209200     3
  CC3163   CC3161    OC30P       SC     9     0.000000     0.878640     3
  CC3163    CC321    OC301   CC3162     9   180.000000     2.677760     1
  CC3163    CC321    OC301   CC3162     9   180.000000     0.125520     2
  CC3163    CC321    OC301   CC3162     9     0.000000     2.552240     3
  CC3163    CC321    OC301   CC3062     9   180.000000     2.677760     1
  CC3163    CC321    OC301   CC3062     9   180.000000     0.125520     2
  CC3163    CC321    OC301   CC3062     9     0.000000     2.552240     3
  CC3163    CC321    OC311     HCP1     9     0.000000     1.213360     1
  CC3163    CC321    OC311     HCP1     9     0.000000     2.594080     2
  CC3163    CC321    OC311     HCP1     9     0.000000     0.209200     3
  CC3163    CC321    OC30P       SC     9   180.000000     5.899440     1
  CC3163    CC321    OC30P       SC     9     0.000000     1.673600     2
  CC3163    CC321    OC30P       SC     9   180.000000     0.878640     3
  CC3163   OC3C61   CC3162    OC301     9   180.000000     1.715440     1
  CC3163   OC3C61   CC3162    OC301     9     0.000000     3.723760     2
  CC3163   OC3C61   CC3162    OC301     9     0.000000     0.209200     3
  CC3163   OC3C61   CC3162    OC302     9   180.000000     1.715440     1
  CC3163   OC3C61   CC3162    OC302     9     0.000000     3.723760     2
  CC3163   OC3C61   CC3162    OC302     9     0.000000     0.209200     3
  CC3163   OC3C61   CC3162    OC311     9   180.000000     1.715440     1
  CC3163   OC3C61   CC3162    OC311     9     0.000000     3.723760     2
  CC3163   OC3C61   CC3162    OC311     9     0.000000     0.209200     3
  CC3163   OC3C61   CC3162    OC30P     9   180.000000    10.208960     3
  CC3163   OC3C61   CC3162    OC303     9   180.000000     1.715440     1
  CC3163   OC3C61   CC3162    OC303     9     0.000000     3.723760     2
  CC3163   OC3C61   CC3162    OC303     9     0.000000     0.209200     3
  CC3163   OC3C61   CC3162    OG303     9   180.000000    10.208960     3
  CC3163   OC3C61   CC3062    OC311     9   180.000000     1.715440     1
  CC3163   OC3C61   CC3062    OC311     9     0.000000     3.723760     2
  CC3163   OC3C61   CC3062    OC311     9     0.000000     0.209200     3
  CC3163   OC3C61   CC3062    OC301     9   180.000000     1.715440     1
  CC3163   OC3C61   CC3062    OC301     9     0.000000     3.723760     2
  CC3163   OC3C61   CC3062    OC301     9     0.000000     0.209200     3
  CC311C   CC321C   CC321C   CC321C     9   180.000000     0.794960     3
  CC311C   CC321C   CC321C   OC3C61     9   180.000000     1.297040     3
  CC311C   CC321C   CC321C     HCA2     9     0.000000     0.794960     3
  CC311C   CC321C   CC321D   OC3C61     9   180.000000     1.297040     3
  CC311C   CC321C   CC321D     HCA2     9     0.000000     0.794960     3
  CC311C   CC321C   OC3C61   CC321D     9     0.000000     0.836800     3
  CC311C   CC321D   OC3C61   CC321C     9     0.000000     0.836800     3
  CC311C    CC321    OC301    CC331     9   180.000000     2.677760     1
  CC311C    CC321    OC301    CC331     9   180.000000     0.125520     2
  CC311C    CC321    OC301    CC331     9     0.000000     2.552240     3
  CC311C    CC321    OC30P       SC     9   180.000000     5.899440     1
  CC311C    CC321    OC30P       SC     9     0.000000     1.673600     2
  CC311C    CC321    OC30P       SC     9   180.000000     0.878640     3
  CC311C   OC3C61   CC321D     HCA2     9     0.000000     1.188256     3
  CC311C    OC301   CC311D     HCA1     9     0.000000     1.188256     3
  CC311C    OC301   CC311D   OC3C61     9   180.000000     0.209200     1
  CC311C    OC301   CC311D   OC3C61     9     0.000000     3.807440     2
  CC311C    OC301   CC311D   OC3C61     9   180.000000     5.313680     3
  CC311C    OC301   CC312D   OC3C5M     9   180.000000     2.175680     1
  CC311C    OC301   CC312D   OC3C5M     9     0.000000     6.276000     2
  CC311C    OC301   CC312D   OC3C5M     9     0.000000     4.100320     3
  CC311C    OC301   CC312D   CC322C     9   180.000000     4.978960     1
  CC311C    OC301   CC312D   CC322C     9   180.000000     0.669440     2
  CC311C    OC301   CC312D   CC322C     9   180.000000     2.050160     3
  CC321C   CC311C   CC321C   CC321C     9   180.000000     0.794960     3
  CC321C   CC311C   CC321C   OC3C61     9   180.000000     1.297040     3
  CC321C   CC311C   CC321C     HCA2     9     0.000000     0.836800     3
  CC321C   CC311C   CC321D   OC3C61     9   180.000000     1.297040     3
  CC321C   CC311C   CC321D     HCA2     9     0.000000     0.836800     3
  CC321C   CC311C    CC321    OC301     9   180.000000     4.602400     1
  CC321C   CC311C    CC321    OC301     9   180.000000     0.292880     2
  CC321C   CC311C    CC321    OC301     9     0.000000     0.627600     3
  CC321C   CC311C    CC321    OC30P     9     0.000000     1.799120     3
  CC321C   CC311C   OC3C61   CC321D     9     0.000000     0.836800     3
  CC321C   CC311C    OC301   CC311D     9   180.000000     0.543920     1
  CC321C   CC311C    OC301   CC311D     9   180.000000     1.046000     2
  CC321C   CC311C    OC301   CC311D     9   180.000000     0.251040     3
  CC321C   CC321C   CC321C   CC321C     9   180.000000     0.794960     3
  CC321C   CC321C   CC321C   OC3C61     9   180.000000     1.297040     3
  CC321C   CC321C   CC321C     HCA2     9     0.000000     0.794960     3
  CC321C   CC321C   CC311C   OC3C61     9   180.000000     1.297040     3
  CC321C   CC321C   CC311C     HCA1     9     0.000000     0.836800     3
  CC321C   CC321C   CC321D   OC3C61     9   180.000000     1.297040     3
  CC321C   CC321C   CC321D     HCA2     9     0.000000     0.794960     3
  CC321C   CC321C   CC311D   OC3C61     9   180.000000     1.297040     3
  CC321C   CC321C   CC311D     HCA1     9     0.000000     0.836800     3
  CC321C   CC321C   CC311D    OC30P     9     0.000000     7.363840     1
  CC321C   CC321C   CC311D    OC30P     9     0.000000    10.711040     2
  CC321C   CC321C   CC311D    OC30P     9     0.000000     0.041840     3
  CC321C   CC321C   CC311D    NC2D1     9     0.000000     0.836800     3
  CC321C   CC321C   OC3C61   CC321C     9     0.000000     0.836800     3
  CC321C   CC321C   OC3C61   CC321D     9     0.000000     0.836800     3
  CC321C   CC321C   OC3C61   CC311D     9     0.000000     0.836800     3
  CC321C   CC321D   OC3C61   CC311C     9     0.000000     0.836800     3
  CC321C   CC321D   OC3C61   CC321C     9     0.000000     0.836800     3
  CC321C   CC311D   OC3C61   CC321C     9     0.000000     0.836800     3
  CC321C   CC311D    OC301    CC331     9     0.000000     0.920480     1
  CC321C   CC311D    OC301    CC331     9   180.000000     1.171520     2
  CC321C   CC311D    OC301    CC331     9     0.000000     3.723760     3
  CC321C   CC311D    OC301   CC311C     9   180.000000     1.715440     1
  CC321C   CC311D    OC301   CC311C     9   180.000000     2.761440     2
  CC321C   CC311D    OC301   CC311C     9     0.000000     6.694400     3
  CC321C   CC311D    OC301      CT2     9   180.000000     5.773920     1
  CC321C   CC311D    OC301      CT2     9   180.000000     5.146320     2
  CC321C   CC311D    OC301      CT2     9     0.000000     1.046000     3
  CC321C   CC311D    OC301      CT1     9   180.000000     4.811600     1
  CC321C   CC311D    OC301      CT1     9   180.000000     6.443360     2
  CC321C   CC311D    OC301      CT1     9     0.000000     1.631760     3
  CC321C   CC311D    OC302   CC311D     9     0.000000     3.054320     1
  CC321C   CC311D    OC302   CC311D     9   180.000000     2.552240     2
  CC321C   CC311D    OC302   CC311D     9   180.000000     0.000000     3
  CC321C   CC311D    OC30P       PC     9   180.000000     0.083680     3
  CC321C   CC311D    OC30P       SC     9     0.000000     0.878640     3
  CC321C   CC311D   CC321C     HCA2     9     0.000000     0.836800     3
  CC321C   CC311D   CC321C   CC321C     9   180.000000     0.794960     3
  CC321C   CC311D   CC311D     HCA1     9     0.000000     0.836800     3
  CC321C   CC311D   CC311D    OC30P     9     0.000000     7.363840     1
  CC321C   CC311D   CC311D    OC30P     9     0.000000    10.711040     2
  CC321C   CC311D   CC311D    OC30P     9     0.000000     0.041840     3
  CC321C   CC311D   CC321D     HCA2     9     0.000000     0.836800     3
  CC321C   OC3C61   CC321C     HCA2     9     0.000000     1.188256     3
  CC321C   OC3C61   CC321D     HCA2     9     0.000000     1.188256     3
  CC321C   OC3C61   CC311D     HCA1     9     0.000000     1.188256     3
  CC321C   OC3C61   CC311D    OC301     9     0.000000     2.594080     1
  CC321C   OC3C61   CC311D    OC301     9     0.000000     6.443360     2
  CC321C   OC3C61   CC311D    OC301     9     0.000000     2.008320     3
  CC321C   OC3C61   CC311D    OC302     9     0.000000     2.594080     1
  CC321C   OC3C61   CC311D    OC302     9     0.000000     6.443360     2
  CC321C   OC3C61   CC311D    OC302     9     0.000000     2.008320     3
  CC321C   OC3C61   CC311D    OC30P     9   180.000000    10.208960     3
  CC321C   OC3C61   CC311D    OC303     9     0.000000     2.594080     1
  CC321C   OC3C61   CC311D    OC303     9     0.000000     6.443360     2
  CC321C   OC3C61   CC311D    OC303     9     0.000000     2.008320     3
  CC321C   OC3C61   CC311D    NC2D1     9     0.000000     2.594080     1
  CC321C   OC3C61   CC311D    NC2D1     9     0.000000     6.443360     2
  CC321C   OC3C61   CC311D    NC2D1     9     0.000000     2.008320     3
  CC321D   CC321C   CC311C   CC321C     9   180.000000     0.794960     3
  CC321D   CC321C   CC311C     HCA1     9     0.000000     0.836800     3
  CC321D   CC321C   CC321C   CC321C     9   180.000000     0.794960     3
  CC321D   CC321C   CC321C   CC311C     9   180.000000     0.794960     3
  CC321D   CC321C   CC321C     HCA2     9     0.000000     0.794960     3
  CC321D   CC311C   CC321C   CC321C     9   180.000000     0.794960     3
  CC321D   CC311C   CC321C     HCA2     9     0.000000     0.836800     3
  CC321D   CC311C    OC301   CC311D     9   180.000000     0.543920     1
  CC321D   CC311C    OC301   CC311D     9   180.000000     1.046000     2
  CC321D   CC311C    OC301   CC311D     9   180.000000     0.251040     3
  CC321D   OC3C61   CC311C    CC321     9     0.000000     1.188256     3
  CC321D   OC3C61   CC311C     HCA1     9     0.000000     1.188256     3
  CC321D   OC3C61   CC321C     HCA2     9     0.000000     1.188256     3
  CC321D   CC311D    OC30P       PC     9   180.000000     0.083680     3
  CC321D   CC311D   CC321C     HCA2     9     0.000000     0.836800     3
  CC321D   CC311D   CC321C   CC321C     9   180.000000     0.794960     3
  CC311D   CC321C   CC321C   CC321C     9   180.000000     0.794960     3
  CC311D   CC321C   CC321C     HCA2     9     0.000000     0.794960     3
  CC311D   OC3C61   CC321C     HCA2     9     0.000000     1.188256     3
  CC311D    OC302   CC311D     HCA1     9     0.000000     1.188256     3
  CC311D    OC302   CC311D   OC3C61     9     0.000000     2.217520     1
  CC311D    OC302   CC311D   OC3C61     9     0.000000     3.096160     2
  CC311D    OC302   CC311D   OC3C61     9     0.000000     0.669440     3
  CC311D    OC302   CC312D   OC3C5M     9   180.000000     2.928800     1
  CC311D    OC302   CC312D   OC3C5M     9     0.000000     5.899440     2
  CC311D    OC302   CC312D   OC3C5M     9     0.000000     3.138000     3
  CC311D    OC302   CC312D   CC322C     9   180.000000     5.146320     1
  CC311D    OC302   CC312D   CC322C     9     0.000000     0.627600     2
  CC311D    OC302   CC312D   CC322C     9   180.000000     2.259360     3
  CC311D    OC301   CC311C     HCA1     9     0.000000     1.188256     3
  CC311D    OC301    CC331     HCA3     9     0.000000     1.188256     3
  CC311D    OC301    CC321     HCA2     9     0.000000     1.188256     3
  CC311D    OC301    CC321    CC331     9   180.000000     3.012480     1
  CC311D    OC301    CC321    CC331     9   180.000000     1.422560     2
  CC311D    OC301    CC321    CC331     9   180.000000     0.502080     3
  CC311D    OC301      CT2       HA     9     0.000000     1.188256     3
  CC311D    OC301      CT2      HA2     9     0.000000     1.188256     3
  CC311D    OC301      CT2      CT1     9   180.000000     8.451680     1
  CC311D    OC301      CT2      CT1     9     0.000000     0.167360     2
  CC311D    OC301      CT2      CT1     9   180.000000     4.058480     3
  CC311D    OC301      CT1       HA     9     0.000000     1.188256     3
  CC311D    OC301      CT1      HA1     9     0.000000     1.188256     3
  CC311D    OC301      CT1      CT3     9   180.000000     6.359680     1
  CC311D    OC301      CT1      CT3     9   180.000000     0.167360     2
  CC311D    OC301      CT1      CT3     9   180.000000     1.882800     3
  CC311D    OC301      CT1      CT1     9   180.000000     9.246640     1
  CC311D    OC301      CT1      CT1     9   180.000000     0.041840     2
  CC311D    OC301      CT1      CT1     9     0.000000     0.125520     3
  CC311D   CC311D    OC30P       PC     9   180.000000     0.083680     3
  CC311D   CC311D   CC321C     HCA2     9     0.000000     0.836800     3
  CC311D   CC311D   CC321C   CC321C     9   180.000000     0.794960     3
  CC311D   CC311D   OC3C61   CC321C     9     0.000000     0.836800     3
  CC311D   CC311D    NC2D1     HCP1     9     0.000000     0.000000     1
  CC311D   CC311D    NC2D1    CC2O1     9   180.000000     2.092000     1
  CC311D   CC321D   OC3C61   CC321C     9     0.000000     0.836800     3
  CC311D    OC30P       PC    OC2DP     9     0.000000     1.380720     3
  CC311D    OC30P       PC    OC312     9     0.000000     6.066800     2
  CC311D    OC30P       SC    OC2DP     9     0.000000     0.711280     3
  CC311D    OC303   CC312C   CC322C     9   180.000000     0.292880     1
  CC311D    OC303   CC312C   CC322C     9     0.000000     0.167360     2
  CC311D    OC303   CC312C   CC322C     9     0.000000     0.585760     3
  CC311D    NC2D1    CC2O1    OC2D1     9   180.000000    10.460000     2
  CC311D    NC2D1    CC2O1    CC331     9     0.000000     6.694400     1
  CC311D    NC2D1    CC2O1    CC331     9   180.000000    10.460000     2
  CC3162   CC3163   CC3161   CC3161     9   180.000000     0.794960     3
  CC3162   CC3161   CC3161    OC311     9     0.000000     0.836800     3
  CC3162   CC3161   CC3161    OC301     9     0.000000     0.836800     3
  CC3162   CC3161   CC3161    OC30P     9     0.000000     7.363840     1
  CC3162   CC3161   CC3161    OC30P     9     0.000000    10.711040     2
  CC3162   CC3161   CC3161    OC30P     9     0.000000     0.041840     3
  CC3162   CC3161    OC301   CC3162     9   180.000000     0.543920     1
  CC3162   CC3161    OC301   CC3162     9   180.000000     1.046000     2
  CC3162   CC3161    OC301   CC3162     9   180.000000     0.251040     3
  CC3162   CC3161    OC301    CC2O5     9   180.000000     0.543920     1
  CC3162   CC3161    OC301    CC2O5     9   180.000000     1.046000     2
  CC3162   CC3161    OC301    CC2O5     9   180.000000     0.251040     3
  CC3162   CC3161    OC301     CTL2     9     0.000000     0.920480     1
  CC3162   CC3161    OC301     CTL2     9   180.000000     1.171520     2
  CC3162   CC3161    OC301     CTL2     9     0.000000     3.723760     3
  CC3162   CC3161    NC2D1    CC2O1     9     0.000000     9.906875     1
  CC3162   CC3161    NC2D1    CC2O1     9   180.000000     2.547638     2
  CC3162   CC3161    NC2D1    CC2O1     9   180.000000     1.535946     3
  CC3162   CC3161    NC2D1    CC2O1     9   180.000000     0.257316     6
  CC3162   CC3161    OC311     HCP1     9     0.000000     1.213360     1
  CC3162   CC3161    OC311     HCP1     9     0.000000     2.594080     2
  CC3162   CC3161    OC311     HCP1     9     0.000000     0.209200     3
  CC3162   CC3161    OC30P       SC     9     0.000000     0.878640     3
  CC3162   CC3161    NC311       SC     9     0.000000     0.673624     3
  CC3162    OC301    CC321    CC321     9     0.000000     1.673600     1
  CC3162    OC301    CC321    CC321     9     0.000000     2.050160     3
  CC3162    OC301    CC321     HCA2     9     0.000000     1.188256     3
  CC3162    OC301   CC3161     HCA1     9     0.000000     1.188256     3
  CC3162    OC301    CC331     HCA3     9     0.000000     1.188256     3
  CC3162    OC301      CT1      CT3     9   180.000000     6.359680     1
  CC3162    OC301      CT1      CT3     9   180.000000     0.167360     2
  CC3162    OC301      CT1      CT3     9   180.000000     1.882800     3
  CC3162    OC301      CT1      CT1     9   180.000000     9.246640     1
  CC3162    OC301      CT1      CT1     9   180.000000     0.041840     2
  CC3162    OC301      CT1      CT1     9     0.000000     0.125520     3
  CC3162    OC301      CT2      CT1     9   180.000000     8.451680     1
  CC3162    OC301      CT2      CT1     9     0.000000     0.167360     2
  CC3162    OC301      CT2      CT1     9   180.000000     4.058480     3
  CC3162    OC301     CTL2     CTL2     9   180.000000     3.012480     1
  CC3162    OC301     CTL2     CTL2     9   180.000000     1.422560     2
  CC3162    OC301     CTL2     CTL2     9   180.000000     0.502080     3
  CC3162    OC301     CTL2     HAL2     9     0.000000     1.188256     3
  CC3162    OC301     CTL2     CTL1     9     0.000000     1.673600     1
  CC3162    OC301     CTL2     CTL1     9     0.000000     2.050160     3
  CC3162    OC301     CTL2    CC301     9   180.000000     3.012480     1
  CC3162    OC301     CTL2    CC301     9   180.000000     1.422560     2
  CC3162    OC301     CTL2    CC301     9   180.000000     0.502080     3
  CC3162    OC301     CTO2     CTL1     9     0.000000     1.673600     1
  CC3162    OC301     CTO2     CTL1     9     0.000000     2.050160     3
  CC3162    OC301     CTO2     HAL2     9     0.000000     1.188256     3
  CC3162    OC301     CTL1     HAL1     9     0.000000     1.188256     3
  CC3162    OC301     CTL1     CTL2     9     0.000000     1.673600     1
  CC3162    OC301     CTL1     CTL2     9     0.000000     2.050160     3
  CC3162    OC302   CC3162     HCA1     9     0.000000     1.188256     3
  CC3162    OC302   CC3162   OC3C61     9     0.000000     2.217520     1
  CC3162    OC302   CC3162   OC3C61     9     0.000000     3.096160     2
  CC3162    OC302   CC3162   OC3C61     9     0.000000     0.669440     3
  CC3162    OC302   CC3051   OC3C51     9   180.000000     2.928800     1
  CC3162    OC302   CC3051   OC3C51     9     0.000000     5.899440     2
  CC3162    OC302   CC3051   OC3C51     9     0.000000     3.138000     3
  CC3162    OC302   CC3051   CC3151     9   180.000000     5.146320     1
  CC3162    OC302   CC3051   CC3151     9     0.000000     0.627600     2
  CC3162    OC302   CC3051   CC3151     9   180.000000     2.259360     3
  CC3162    OC30P       PC    OC2DP     9     0.000000     1.380720     3
  CC3162    OC30P       PC    OC312     9     0.000000     6.066800     2
  CC3162    OC30P       SC    OC2DP     9     0.000000     0.711280     3
  CC3162    OC303   CC3151   CC3153     9   180.000000     0.292880     1
  CC3162    OC303   CC3151   CC3153     9     0.000000     0.167360     2
  CC3162    OC303   CC3151   CC3153     9     0.000000     0.585760     3
  CC3162    OC303   CC3151   CC3151     9   180.000000     0.292880     1
  CC3162    OC303   CC3151   CC3151     9     0.000000     0.167360     2
  CC3162    OC303   CC3151   CC3151     9     0.000000     0.585760     3
  CC3162    OC303   CC3151     HCA1     9     0.000000     1.188256     3
  CC3162    OC303   CC3151   CC3051     9   180.000000     0.292880     1
  CC3162    OC303   CC3151   CC3051     9     0.000000     0.167360     2
  CC3162    OC303   CC3151   CC3051     9     0.000000     0.585760     3
  CC3162    NC2D1    CC2O1    OC2D1     9   180.000000    10.460000     2
  CC3162    NC2D1    CC2O1    CC331     9     0.000000     6.694400     1
  CC3162    NC2D1    CC2O1    CC331     9   180.000000    10.460000     2
  CC3162    OG303      PG1    OG2P1     9     0.000000     1.380720     3
  CC3162    OG303      PG1    OG304     9     0.000000     6.066800     2
   CC321   CC311C   CC321C   CC321C     9     0.000000     0.836800     3
   CC321   CC311C   CC321C     HCA2     9     0.000000     0.836800     3
   CC321   CC3163   CC3161    OC311     9     0.000000     0.836800     3
   CC321   CC3163   CC3161    OC301     9     0.000000     0.836800     3
   CC321   CC3163   CC3161    OC30P     9     0.000000     0.836800     3
   CC321   CC3163   OC3C61   CC3162     9     0.000000     0.836800     3
   CC321    CC321    CC321    OC301     9     0.000000     0.794960     3
   CC321    CC321    CC321     HCA2     9     0.000000     0.794960     3
   CC321    CC321    CC331     HCA3     9     0.000000     0.669440     3
   CC321    CC321      NHL        C     9     0.000000     7.531200     1
   CC321    CC321      NHL    CC322     9     0.000000     7.531200     1
   CC321    OC301   CC3162     HCA1     9     0.000000     1.188256     3
   CC321    OC301   CC3162   OC3C61     9     0.000000     0.585760     1
   CC321    OC301   CC3162   OC3C61     9     0.000000     4.058480     2
   CC321    OC301   CC3162   OC3C61     9   180.000000     0.460240     3
   CC321    OC301    CC331     HCA3     9     0.000000     1.188256     3
   CC321    OC301   CC311D     HCA1     9     0.000000     1.188256     3
   CC321    OC301   CC311D   OC3C61     9   180.000000     1.506240     1
   CC321    OC301   CC311D   OC3C61     9     0.000000     2.175680     2
   CC321    OC301   CC311D   OC3C61     9   180.000000     3.472720     3
   CC321    OC301   CC311D   CC321C     9   180.000000     2.426720     1
   CC321    OC301   CC311D   CC321C     9   180.000000     2.886960     2
   CC321    OC301   CC311D   CC321C     9     0.000000     4.853440     3
   CC321    OC301   CC3051   OC3C51     9     0.000000     4.100320     2
   CC321    OC301   CC3051   OC3C51     9     0.000000     6.276000     3
   CC321    OC301   CC3051   CC3151     9   180.000000     4.058480     1
   CC321    OC301   CC3051   CC3151     9   180.000000     1.840960     3
   CC321    OC301   CC3051    CC321     9   180.000000     1.673600     1
   CC321    OC301   CC3051    CC321     9     0.000000     2.008320     2
   CC321    OC301   CC3051    CC321     9     0.000000     0.794960     3
   CC321    OC301   CC3152   OC3C51     9     0.000000     4.100320     2
   CC321    OC301   CC3152   OC3C51     9     0.000000     6.276000     3
   CC321    OC301   CC3152   CC3151     9   180.000000     4.058480     1
   CC321    OC301   CC3152   CC3151     9   180.000000     1.840960     3
   CC321    OC301   CC3062   OC3C61     9     0.000000     0.585760     1
   CC321    OC301   CC3062   OC3C61     9     0.000000     4.058480     2
   CC321    OC301   CC3062   OC3C61     9   180.000000     0.460240     3
   CC321    OC301   CC3062    CC2O2     9     0.000000     1.188256     3
   CC321   CC3153   CC3151    OC311     9   180.000000     3.179840     1
   CC321   CC3153   CC3151    OC311     9   180.000000     1.673600     2
   CC321   CC3153   CC3151    OC311     9   180.000000     1.673600     3
   CC321   CC3153   CC3151     HCA1     9     0.000000     0.836800     3
   CC321   CC3153   CC3151    OC303     9   180.000000     3.179840     1
   CC321   CC3153   CC3151    OC303     9   180.000000     1.673600     2
   CC321   CC3153   CC3151    OC303     9   180.000000     1.673600     3
   CC321   CC3051   CC3151    OC311     9     0.000000     3.932960     1
   CC321   CC3051   CC3151    OC311     9   180.000000     6.652560     2
   CC321   CC3051   CC3151    OC311     9     0.000000     3.514560     3
   CC321   CC3051   CC3151     HCA1     9     0.000000     0.836800     3
   CC321   CC3051   CC3151    OC303     9     0.000000     3.932960     1
   CC321   CC3051   CC3151    OC303     9   180.000000     6.652560     2
   CC321   CC3051   CC3151    OC303     9     0.000000     3.514560     3
   CC321   CC3051    OC311     HCP1     9   180.000000     1.673600     1
   CC321   CC3051    OC311     HCP1     9     0.000000     2.008320     2
   CC321   CC3051    OC311     HCP1     9     0.000000     0.794960     3
   CC321   CC3051    OC302   CC3162     9   180.000000     1.673600     1
   CC321   CC3051    OC302   CC3162     9     0.000000     2.008320     2
   CC321   CC3051    OC302   CC3162     9     0.000000     0.794960     3
   CC321   CC3152   CC3151     HCA1     9     0.000000     0.836800     3
   CC321    OC30P       SC    OC2DP     9     0.000000     0.711280     3
   CC321    OC30P       PC    OC2DP     9     0.000000     0.418400     3
   CC321    OC30P       PC    OC312     9     0.000000     3.974800     2
   CC321    OC30P       PC    OC312     9     0.000000     2.092000     3
   CC321   CC312C   OC3C5M   CC322C     9   180.000000     4.895280     3
   CC321   CC312C   CC322C   CC322C     9   180.000000     8.033280     3
   CC321    CC2O1    NC2D1     HCP1     9   180.000000    10.460000     2
   CC321    CC2O1    NC2D1   CC3162     9     0.000000     6.694400     1
   CC321    CC2O1    NC2D1   CC3162     9   180.000000    10.460000     2
   CC321      CT1        C        O     9     0.000000     5.857600     1
   CC321      CT1        C      NH1     9     0.000000     0.000000     1
   CC321      NHL        C        O     9   180.000000    10.460000     2
   CC321      NHL        C     CTL2     9     0.000000     6.694400     1
   CC321      NHL        C     CTL2     9   180.000000    10.460000     2
   CC321      NHL    CC322     HCA2     9     0.000000     0.000000     3
   CC321      NHL    CC322    CC312     9     0.000000     7.531200     1
  CC3062   CC3261   CC3161    OC311     9     0.000000     0.836800     3
  CC3062    OC301   CC3161     HCA1     9     0.000000     1.188256     3
  CC3062    OC301    CC321     HCA2     9     0.000000     1.188256     3
  CC3263   CC3161   CC3161    OC311     9     0.000000     0.836800     3
  CC3263   CC3161   CC3161    OC301     9     0.000000     0.836800     3
  CC3263   CC3161    OC311     HCP1     9     0.000000     1.213360     1
  CC3263   CC3161    OC311     HCP1     9     0.000000     2.594080     2
  CC3263   CC3161    OC311     HCP1     9     0.000000     0.209200     3
  CC3263   CC3161    OC301   CC3162     9   180.000000     0.543920     1
  CC3263   CC3161    OC301   CC3162     9   180.000000     1.046000     2
  CC3263   CC3161    OC301   CC3162     9   180.000000     0.251040     3
  CC3263   OC3C61   CC3162    OC311     9   180.000000     1.715440     1
  CC3263   OC3C61   CC3162    OC311     9     0.000000     3.723760     2
  CC3263   OC3C61   CC3162    OC311     9     0.000000     0.209200     3
  CC3263   OC3C61   CC3162    OC301     9   180.000000     1.715440     1
  CC3263   OC3C61   CC3162    OC301     9     0.000000     3.723760     2
  CC3263   OC3C61   CC3162    OC301     9     0.000000     0.209200     3
   CC2O2   CC3163   CC3161    OC311     9     0.000000     0.836800     3
   CC2O2   CC3163   CC3161    OC301     9     0.000000     0.836800     3
   CC2O2   CC3163   OC3C61   CC3162     9     0.000000     0.836800     3
   CC2O2   CC3062   OC3C61   CC3163     9     0.000000     0.836800     3
   CC2O2   CC3062    OC311     HCP1     9   180.000000     3.430880     3
   CC2O2   CC3062    OC301    CC312     9   180.000000     4.883146     1
   CC2O2   CC3062    OC301    CC312     9     0.000000     6.362609     2
   CC2O2   CC3062    OC301    CC312     9   180.000000     4.250944     3
   CC2O2   CC3062    OC301    CC322     9   180.000000     1.727155     1
   CC2O2   CC3062    OC301    CC322     9   180.000000     1.202900     2
   CC2O2   CC3062    OC301    CC322     9     0.000000     0.286604     3
   CC2O2    CC301    OC301    CC331     9     0.000000     0.836800     3
   CC2O2    CC301    CC331     HCA3     9     0.000000     0.836800     3
   CC2O2    CC301    OC311     HCP1     9   180.000000     3.430880     3
   CC2O2    CC311    OC301    CC331     9     0.000000     0.836800     3
   CC2O2    CC311    CC331     HCA3     9     0.000000     0.836800     3
   CC2O2    CC321    CC331     HCA3     9     0.000000     0.669440     3
   OC2D2    CC2O2    CC311    CC331     9   180.000000     0.209200     6
   OC2D2    CC2O2    CC311    OC301     9   180.000000     2.677760     2
   OC2D2    CC2O2    CC301    CC331     9   180.000000     0.209200     6
   OC2D2    CC2O2   CC3062   CC3261     9   180.000000     0.209200     6
   OC2D2    CC2O2    CC321    CC331     9   180.000000     0.209200     6
   OC301   CC311C   CC321C   CC321C     9     0.000000     0.836800     3
   OC301   CC311C   CC321C   CC321D     9     0.000000     0.836800     3
   OC301   CC311C   CC321C   OC3C61     9     0.000000     0.836800     3
   OC301   CC311C   CC321C     HCA2     9     0.000000     0.836800     3
   OC301   CC311C   CC321D   OC3C61     9     0.000000     0.836800     3
   OC301   CC311C   CC321D     HCA2     9     0.000000     0.836800     3
   OC301   CC311D   CC321C   CC321C     9     0.000000     0.836800     3
   OC301   CC311D   CC321C     HCA2     9     0.000000     0.836800     3
   OC301   CC3162   CC3161    OC311     9   180.000000    11.087600     1
   OC301   CC3162   CC3161    OC311     9     0.000000     0.000000     2
   OC301   CC3162   CC3161    OC311     9   180.000000     0.543920     3
   OC301   CC3162   CC3161    NC2D1     9     0.000000     0.836800     3
   OC301   CC3161   CC3161    OC311     9   180.000000    11.087600     1
   OC301   CC3161   CC3161    OC311     9     0.000000     0.000000     2
   OC301   CC3161   CC3161    OC311     9   180.000000     0.543920     3
   OC301   CC3161   CC3161     HCA1     9     0.000000     0.836800     3
   OC301   CC3161   CC3161    NC2D1     9     0.000000     0.836800     3
   OC301   CC3161   CC3161    OC301     9   180.000000     2.468560     1
   OC301   CC3161   CC3161    OC301     9     0.000000     4.853440     2
   OC301   CC3161   CC3162    OC311     9   180.000000    11.087600     1
   OC301   CC3161   CC3162    OC311     9     0.000000     0.000000     2
   OC301   CC3161   CC3162    OC311     9   180.000000     0.543920     3
   OC301   CC3161   CC3162    OC301     9   180.000000     2.468560     1
   OC301   CC3161   CC3162    OC301     9     0.000000     4.853440     2
   OC301   CC3161   CC3162   OC3C61     9   180.000000    11.506000     1
   OC301   CC3161   CC3162   OC3C61     9   180.000000     1.087840     2
   OC301   CC3161   CC3162   OC3C61     9     0.000000     0.418400     3
   OC301   CC3161   CC3162     HCA1     9     0.000000     0.836800     3
   OC301   CC3161   CC3163   OC3C61     9   180.000000     5.690240     1
   OC301   CC3161   CC3163   OC3C61     9     0.000000     0.669440     2
   OC301   CC3161   CC3163   OC3C61     9     0.000000     4.225840     3
   OC301   CC3161   CC3163     HCA1     9     0.000000     0.836800     3
   OC301   CC3161   CC3263     HCA2     9     0.000000     0.836800     3
   OC301   CC3161   CC3263   OC3C61     9   180.000000     5.690240     1
   OC301   CC3161   CC3263   OC3C61     9     0.000000     0.669440     2
   OC301   CC3161   CC3263   OC3C61     9     0.000000     4.225840     3
   OC301    CC301    CC2O2    OC2D2     9   180.000000     2.677760     2
   OC301    CC321   CC311C   OC3C61     9   180.000000     8.075120     1
   OC301    CC321   CC311C   OC3C61     9     0.000000     1.799120     2
   OC301    CC321   CC311C   OC3C61     9   180.000000     0.502080     3
   OC301    CC321   CC311C     HCA1     9     0.000000     0.836800     3
   OC301    CC321   CC3163   OC3C61     9   180.000000     6.236670     1
   OC301    CC321   CC3163   OC3C61     9     0.000000     1.572766     2
   OC301    CC321   CC3163   OC3C61     9     0.000000     2.475254     3
   OC301    CC321   CC3163     HCA1     9     0.000000     0.836800     3
   OC301    CC321    CC331     HCA3     9     0.000000     0.836800     3
   OC301    CC321   CC312C   OC3C5M     9   180.000000     8.075120     1
   OC301    CC321   CC312C   OC3C5M     9     0.000000     1.799120     2
   OC301    CC321   CC312C   OC3C5M     9   180.000000     0.502080     3
   OC301    CC321   CC3051   CC3151     9   180.000000     4.602400     1
   OC301    CC321   CC3051   CC3151     9   180.000000     0.292880     2
   OC301    CC321   CC3051   CC3151     9     0.000000     0.627600     3
   OC301    CC321   CC3153     HCA1     9     0.000000     0.585760     3
   OC301    CC321   CC3153   CC3151     9   180.000000     4.602400     1
   OC301    CC321   CC3153   CC3151     9   180.000000     0.292880     2
   OC301    CC321   CC3153   CC3151     9     0.000000     0.627600     3
   OC301   CC3062    CC2O2    OC2D2     9   180.000000     2.677760     2
   OC301   CC312C   CC322C   HCA2C2     9     0.000000     0.836800     3
   OC301   CC312C   OC3C5M   CC322C     9     0.000000     1.255200     3
   OC301   CC3152   CC3151    OC311     9   180.000000    12.008080     1
   OC301   CC3152   CC3151    OC311     9     0.000000     0.125520     2
   OC301   CC3152   CC3151    OC311     9     0.000000     0.962320     3
   OC301   CC3152   CC3151     HCA1     9     0.000000     0.836800     3
   OC301   CC3152   OC3C51   CC3153     9   180.000000     3.179840     1
   OC301   CC3152   OC3C51   CC3153     9     0.000000     5.230000     2
   OC301   CC3152   OC3C51   CC3153     9   180.000000     2.008320     3
   OC301   CC312D   CC322C   HCA2C2     9     0.000000     0.836800     3
   OC301   CC3051    CC321     HCA2     9     0.000000     0.585760     3
   OC301   CC3051    CC321    OC311     9     0.000000     0.292880     1
   OC301   CC3051    CC321    OC311     9   180.000000     8.326160     2
   OC301   CC3051    CC321    OC311     9   180.000000     7.196480     3
   OC301   CC3051    CC321    OC301     9     0.000000     0.292880     1
   OC301   CC3051    CC321    OC301     9   180.000000     8.326160     2
   OC301   CC3051    CC321    OC301     9   180.000000     7.196480     3
   OC301   CC3051   CC3151     HCA1     9     0.000000     0.585760     3
   OC301   CC3051   CC3151    OC311     9   180.000000     0.502080     1
   OC301   CC3051   CC3151    OC311     9   180.000000     7.824080     2
   OC301   CC3051   CC3151    OC311     9   180.000000     6.861760     3
   OC301    CC312    CC322    OC311     9   180.000000     7.426182     1
   OC301    CC312    CC322    OC311     9     0.000000     6.574319     2
   OC301    CC312    CC322    OC311     9     0.000000     7.620738     3
   OC301    CC312    CC322     HCA2     9     0.000000     0.585760     3
   OC301    CC312    CC312    OC311     9   180.000000     7.181418     1
   OC301    CC312    CC312    OC311     9   180.000000     1.662303     2
   OC301    CC312    CC312    OC311     9     0.000000     8.281391     3
   OC301    CC312    CC312     HCA1     9     0.000000     0.585760     3
   OC301    CC322    CC312     HCA1     9     0.000000     0.585760     3
   OC301    CC2O5    CC331     HCA3     9   180.000000     0.000000     6
   OC301     CTL2     CTL3     HAL3     9     0.000000     0.836800     3
   OC301     CTL2    CC301     CTL2     9     0.000000     0.794960     3
   OC301     CN7B      CN7      ON2     9     0.000000     0.000000     3
   OC301     CN7B      CN7      ON5     9     0.000000     0.000000     3
   OC301     CN7B      CN7      CN7     9     0.000000     0.000000     3
   OC301     CN7B      CN7      HN7     9     0.000000     0.815880     3
   OC301     CN7B     CN7B     ON6B     9     0.000000     0.000000     3
   OC301     CN7B     CN7B      HN7     9     0.000000     0.815880     3
   OC302   CC311D   CC321C   CC321C     9     0.000000     0.836800     3
   OC302   CC311D   CC321C     HCA2     9     0.000000     0.836800     3
   OC302   CC3162   CC3161    OC311     9   180.000000    11.087600     1
   OC302   CC3162   CC3161    OC311     9     0.000000     0.000000     2
   OC302   CC3162   CC3161    OC311     9   180.000000     0.543920     3
   OC302   CC3162   CC3161    NC2D1     9     0.000000     0.836800     3
   OC302   CC312D   CC322C   HCA2C2     9     0.000000     0.836800     3
   OC302   CC3051   OC3C51   CC3153     9   180.000000     0.794960     1
   OC302   CC3051   OC3C51   CC3153     9   180.000000    11.924400     2
   OC302   CC3051   OC3C51   CC3153     9     0.000000     3.598240     3
   OC302   CC3051    CC321     HCA2     9     0.000000     0.585760     3
   OC302   CC3051    CC321    OC311     9     0.000000     0.292880     1
   OC302   CC3051    CC321    OC311     9   180.000000     8.326160     2
   OC302   CC3051    CC321    OC311     9   180.000000     7.196480     3
   OC302   CC3051    CC321    OC301     9     0.000000     0.292880     1
   OC302   CC3051    CC321    OC301     9   180.000000     8.326160     2
   OC302   CC3051    CC321    OC301     9   180.000000     7.196480     3
   OC302   CC3051   CC3151     HCA1     9     0.000000     0.585760     3
   OC302   CC3051   CC3151    OC311     9   180.000000     0.502080     1
   OC302   CC3051   CC3151    OC311     9   180.000000     7.824080     2
   OC302   CC3051   CC3151    OC311     9   180.000000     6.861760     3
   OC302   CC3051   CC3151    OC303     9   180.000000     0.502080     1
   OC302   CC3051   CC3151    OC303     9   180.000000     7.824080     2
   OC302   CC3051   CC3151    OC303     9   180.000000     6.861760     3
   NC2D1   CC3161   CC3161   CC3161     9     0.000000     0.836800     3
   NC2D1   CC3161   CC3161   CC3261     9     0.000000     0.836800     3
   NC2D1    CC311    CC331     HCA3     9     0.000000     0.836800     3
   NC2D1    CC2O1    CC331     HCA3     9     0.000000     0.000000     3
   NC2D1   CC311D   CC311D    NC2D1     9   180.000000     2.468560     1
   NC2D1   CC311D   CC311D    NC2D1     9     0.000000     4.853440     2
   NC2D1   CC311D   CC311D   CC321C     9     0.000000     0.836800     3
   NC2D1   CC3162   OC3C61   CC3163     9     0.000000     2.594080     1
   NC2D1   CC3162   OC3C61   CC3163     9     0.000000     6.443360     2
   NC2D1   CC3162   OC3C61   CC3163     9     0.000000     2.008320     3
   NC2D1   CC3162   OC3C61   CC3263     9     0.000000     2.594080     1
   NC2D1   CC3162   OC3C61   CC3263     9     0.000000     6.443360     2
   NC2D1   CC3162   OC3C61   CC3263     9     0.000000     2.008320     3
   NC2D1   CC3162   CC3161    NC2D1     9   180.000000     2.468560     1
   NC2D1   CC3162   CC3161    NC2D1     9     0.000000     4.853440     2
   NC2D1   CC3162   CC3161     HCA1     9     0.000000     0.836800     3
   NC2D1   CC3162   CC3161   CC3161     9     0.000000     0.836800     3
   NC2D1   CC3162   CC3161    OC311     9     0.000000     0.836800     3
  OC3C61   CC3163    CC2O2    OC2D2     9   180.000000     2.677760     2
  OC3C61   CC3163   CC3161    NC2D1     9     0.000000     0.836800     3
  OC3C61   CC3163   CC3161    OC30P     9     0.000000     2.552240     3
  OC3C61   CC3163    CC321    OC30P     9     0.000000     0.251040     1
  OC3C61   CC3163    CC321    OC30P     9     0.000000     3.263520     2
  OC3C61   CC3163    CC321    OC30P     9   180.000000     3.096160     3
  OC3C61   CC3062    CC2O2    OC2D2     9   180.000000     2.677760     2
  OC3C61   CC3062    OC301    CC312     9     0.000000     5.633338     1
  OC3C61   CC3062    OC301    CC312     9     0.000000    12.862871     2
  OC3C61   CC3062    OC301    CC312     9   180.000000     3.505355     3
  OC3C61   CC3062    OC301    CC322     9     0.000000     8.793931     1
  OC3C61   CC3062    OC301    CC322     9     0.000000     5.900277     2
  OC3C61   CC3062    OC301    CC322     9     0.000000     1.912088     3
  OC3C61   CC321C   CC321C     HCA2     9     0.000000     0.669440     3
  OC3C61   CC321C   CC311C     HCA1     9     0.000000     0.836800     3
  OC3C61   CC321D   CC321C     HCA2     9     0.000000     0.669440     3
  OC3C61   CC321D   CC311C     HCA1     9     0.000000     0.836800     3
  OC3C61   CC321D   CC311D     HCA1     9     0.000000     0.836800     3
  OC3C61   CC321D   CC311D   CC321C     9   180.000000     1.297040     3
  OC3C61   CC321D   CC311D    OC30P     9     0.000000     2.552240     3
  OC3C61   CC311C   CC321C     HCA2     9     0.000000     0.836800     3
  OC3C61   CC311C    CC321     HCA2     9     0.000000     0.836800     3
  OC3C61   CC311C    CC321    OC30P     9     0.000000     0.251040     1
  OC3C61   CC311C    CC321    OC30P     9     0.000000     3.263520     2
  OC3C61   CC311C    CC321    OC30P     9   180.000000     3.096160     3
  OC3C61   CC311D   CC321C     HCA2     9     0.000000     0.836800     3
  OC3C61   CC311D    OC30P       PC     9     0.000000     1.589920     2
  OC3C61   CC311D    OC30P       PC     9   180.000000     1.715440     3
  OC3C61   CC311D    OC30P       SC     9     0.000000     3.179840     1
  OC3C61   CC311D    OC30P       SC     9     0.000000     2.845120     2
  OC3C61   CC311D    OC30P       SC     9   180.000000     1.087840     3
  OC3C61   CC311D   CC311D     HCA1     9     0.000000     0.836800     3
  OC3C61   CC311D   CC311D   CC321C     9   180.000000     1.297040     3
  OC3C61   CC311D   CC311D    OC30P     9     0.000000     2.552240     3
  OC3C61   CC311D   CC311D    NC2D1     9     0.000000     0.836800     3
  OC3C61   CC3162   CC3161    NC2D1     9     0.000000     0.836800     3
  OC3C61   CC3162   CC3161    OC30P     9     0.000000     2.552240     3
  OC3C61   CC3162    OC30P       PC     9     0.000000     1.589920     2
  OC3C61   CC3162    OC30P       PC     9   180.000000     1.715440     3
  OC3C61   CC3162    OC303   CC3151     9     0.000000     0.334720     1
  OC3C61   CC3162    OC303   CC3151     9     0.000000     3.891120     2
  OC3C61   CC3162    OC303   CC3151     9     0.000000     0.209200     3
  OC3C61   CC3162    OC301     CTL2     9   180.000000     1.506240     1
  OC3C61   CC3162    OC301     CTL2     9     0.000000     2.175680     2
  OC3C61   CC3162    OC301     CTL2     9   180.000000     3.472720     3
  OC3C61   CC3162    OC301     CTL1     9   180.000000     1.506240     1
  OC3C61   CC3162    OC301     CTL1     9     0.000000     2.175680     2
  OC3C61   CC3162    OC301     CTL1     9   180.000000     3.472720     3
  OC3C61   CC3162    OG303      PG1     9     0.000000     1.589920     2
  OC3C61   CC3162    OG303      PG1     9   180.000000     1.715440     3
  OC3C61   CC3162    OG301   CG3C51     9     0.000000     3.430880     1
  OC3C61   CC3162    OG301   CG3C51     9     0.000000     3.389040     2
  OC3C61   CC3162    OG301   CG3C51     9     0.000000     1.464400     3
  OC311M    CC321    CC321   OC311M     9     0.000000     1.380720     1
  OC311M    CC321    CC321   OC311M     9     0.000000     9.079280     2
  OC311M    CC321    CC321   OC311M     9     0.000000     1.882800     3
  OC311M    CC321    CC321     HCA2     9     0.000000     0.585760     3
  OC311M    CC321    CC321      NHL     9   180.000000     0.753120     1
  OC311M    CC321    CC321      NHL     9   180.000000     0.794960     2
  OC311M    CC321    CC321      NHL     9     0.000000     6.108640     3
  OC311M    CC321    CC331     HCA3     9     0.000000     0.585760     3
  OC311M    CC311    CC331     HCA3     9     0.000000     0.585760     3
    HCA3    CC331   OC311M     HCP1     9     0.000000     0.753120     3
    HCA3    CC331    CC301    OC311     9     0.000000     0.585760     3
    HCA3    CC331    CC301    OC301     9     0.000000     0.836800     3
    HCA3    CC331   CC3163   OC3C61     9     0.000000     0.836800     3
    HCA3    CC331   CC3163   CC3161     9     0.000000     0.836800     3
    HCA3    CC331    CC311    OC301     9     0.000000     0.836800     3
    HCA3    CC331    CC2O1    OC2D1     9   180.000000     0.000000     3
    HCA3    CC331      NHL        C     9     0.000000     0.000000     3
    HCA3    CC331      NHL    CC322     9     0.000000     0.000000     3
    HCA2    CC321   OC311M     HCP1     9     0.000000     0.753120     3
    HCA2    CC321   OC311M    HCP1M     9     0.000000     0.753120     3
    HCA2    CC321   CC3163   OC3C61     9     0.000000     0.836800     3
    HCA2    CC321   CC3163   CC3161     9     0.000000     0.836800     3
    HCA2    CC321    CC321    OC301     9     0.000000     0.794960     3
    HCA2    CC321    CC321     HCA2     9     0.000000     0.794960     3
    HCA2    CC321    CC321      NHL     9     0.000000     0.836800     3
    HCA2    CC321    CC2O2    OC2D2     9   180.000000     0.209200     6
    HCA2    CC321    CC331     HCA3     9     0.000000     0.669440     3
    HCA2    CC321   CC311C   CC321C     9     0.000000     0.836800     3
    HCA2    CC321    OC30P       SC     9     0.000000     1.188256     3
    HCA2    CC321    OC30P       PC     9     0.000000     0.000000     3
    HCA2    CC321    OC301   CC3051     9     0.000000     1.188256     3
    HCA2    CC321    OC301   CC3152     9     0.000000     1.188256     3
    HCA2    CC321      CT1       CC     9     0.000000     0.836800     3
    HCA2    CC321      CT1        C     9     0.000000     0.836800     3
    HCA2    CC321    CC2O1    OC2D1     9   180.000000     0.000000     3
    HCA2    CC321    CC2O1    NC2D1     9     0.000000     0.000000     3
    HCA2    CC321      NHL        C     9     0.000000     0.000000     3
    HCA2    CC321      NHL    CC322     9     0.000000     0.000000     3
    HCA2   CC3261   CC3161    OC311     9     0.000000     0.585760     3
    HCA2   CC3261   CC3161     HCA1     9     0.000000     0.836800     3
    HCA2   CC3261   CC3161   CC3161     9     0.000000     0.836800     3
    HCA2   CC3261   CC3161   CC3162     9     0.000000     0.836800     3
    HCA2   CC3261   CC3161   CC3163     9     0.000000     0.836800     3
    HCA2   CC3261   CC3161    OC301     9     0.000000     0.585760     3
    HCA2   CC3261   CC3062    OC311     9     0.000000     0.585760     3
    HCA2   CC3261   CC3062   OC3C61     9     0.000000     0.836800     3
    HCA2   CC3261   CC3062    CC2O2     9     0.000000     0.836800     3
    HCA2   CC3261   CC3062    OC301     9     0.000000     0.836800     3
    HCA2   CC3263   CC3161    OC311     9     0.000000     0.585760     3
    HCA2   CC3263   CC3161   CC3161     9     0.000000     0.836800     3
    HCA2   CC3263   OC3C61   CC3162     9     0.000000     1.188256     3
    HCA2    CC322    CC312    OC311     9     0.000000     0.585760     3
    HCA2    CC322    OC301   CC3062     9     0.000000     1.188256     3
    HCA2   CC321C   CC321C     HCA2     9     0.000000     0.794960     3
    HCA2   CC321C   CC311D    OC30P     9     0.000000     0.836800     3
    HCA2   CC321C   CC311D    NC2D1     9     0.000000     0.836800     3
    HCA2   CC321D   CC321C     HCA2     9     0.000000     0.794960     3
    HCA2   CC321D   CC311D     HCA1     9     0.000000     0.836800     3
    HCA2   CC321D   CC311D    OC30P     9     0.000000     0.836800     3
    HCA2   CC3251   CC3151     HCA1     9     0.000000     0.836800     3
    HCA1    CC311   OC311M     HCP1     9     0.000000     0.753120     3
    HCA1    CC311    CC2O2    OC2D2     9   180.000000     0.209200     6
    HCA1    CC311    CC331     HCA3     9     0.000000     0.836800     3
    HCA1    CC311    OC301    CC331     9     0.000000     1.188256     3
    HCA1   CC3161   CC3161    OC311     9     0.000000     0.585760     3
    HCA1   CC3161   CC3161    NC2D1     9     0.000000     0.836800     3
    HCA1   CC3161   CC3161     HCA1     9     0.000000     0.836800     3
    HCA1   CC3161   CC3161   CC3161     9     0.000000     0.836800     3
    HCA1   CC3161   CC3161   CC3163     9     0.000000     0.836800     3
    HCA1   CC3161   CC3161   CC3261     9     0.000000     0.836800     3
    HCA1   CC3161   CC3161   CC3263     9     0.000000     0.836800     3
    HCA1   CC3161   CC3161   CC3162     9     0.000000     0.836800     3
    HCA1   CC3161   CC3161    OC30P     9     0.000000     0.836800     3
    HCA1   CC3161   CC3162    OC311     9     0.000000     0.585760     3
    HCA1   CC3161   CC3162   OC3C61     9     0.000000     0.836800     3
    HCA1   CC3161   CC3162    OC301     9     0.000000     0.836800     3
    HCA1   CC3161   CC3162    OC302     9     0.000000     0.836800     3
    HCA1   CC3161   CC3162    OC30P     9     0.000000     0.836800     3
    HCA1   CC3161   CC3162    OG303     9     0.000000     0.836800     3
    HCA1   CC3161   CC3163   OC3C61     9     0.000000     0.836800     3
    HCA1   CC3161   CC3163     HCA1     9     0.000000     0.836800     3
    HCA1   CC3161   CC3163    CC312     9     0.000000     0.836800     3
    HCA1   CC3161   CC3163    CC321     9     0.000000     0.836800     3
    HCA1   CC3161   CC3163    CC331     9     0.000000     0.836800     3
    HCA1   CC3161   CC3163    CC2O2     9     0.000000     0.836800     3
    HCA1   CC3161   CC3263   OC3C61     9     0.000000     0.836800     3
    HCA1   CC3161   CC3263     HCA2     9     0.000000     0.836800     3
    HCA1   CC3161   CC3261   CC3062     9     0.000000     0.836800     3
    HCA1   CC3161   CC3261   CC3161     9     0.000000     0.836800     3
    HCA1   CC3161    OC30P       PC     9     0.000000     1.188256     3
    HCA1   CC3161    OC30P       SC     9     0.000000     0.000000     3
    HCA1   CC3161    OC30P       PL     9     0.000000     1.188256     3
    HCA1   CC3161    OC301   CC3152     9     0.000000     1.188256     3
    HCA1   CC3161    OC301    CC2O5     9     0.000000     0.000000     3
    HCA1   CC3161    OC301     CTL2     9     0.000000     1.188256     3
    HCA1   CC3162   CC3161    OC311     9     0.000000     0.585760     3
    HCA1   CC3162   CC3161    NC2D1     9     0.000000     0.836800     3
    HCA1   CC3162   CC3161     HCA1     9     0.000000     0.836800     3
    HCA1   CC3162   CC3161   CC3161     9     0.000000     0.836800     3
    HCA1   CC3162   CC3161    OC30P     9     0.000000     0.836800     3
    HCA1   CC3162   CC3161   CC3261     9     0.000000     0.836800     3
    HCA1   CC3162   OC3C61   CC3163     9     0.000000     1.188256     3
    HCA1   CC3162   OC3C61   CC3263     9     0.000000     1.188256     3
    HCA1   CC3162    OC30P       PC     9     0.000000     1.188256     3
    HCA1   CC3162    OC303   CC3151     9     0.000000     1.188256     3
    HCA1   CC3162    NC2D1     HCP1     9     0.000000     0.000000     1
    HCA1   CC3162    NC2D1    CC2O1     9     0.000000     0.000000     1
    HCA1   CC3162    OG303      PG1     9     0.000000     1.188256     3
    HCA1   CC3162    OC301     CTL1     9     0.000000     1.188256     3
    HCA1   CC3162    OG301   CG3C51     9     0.000000     1.464400     3
    HCA1   CC3163   CC3161    OC311     9     0.000000     0.585760     3
    HCA1   CC3163   CC3161    NC2D1     9     0.000000     0.836800     3
    HCA1   CC3163   CC3161   CC3161     9     0.000000     0.836800     3
    HCA1   CC3163   CC3161    OC30P     9     0.000000     0.836800     3
    HCA1   CC3163   CC3161   CC3261     9     0.000000     0.836800     3
    HCA1   CC3163    CC321    OC311     9     0.000000     0.585760     3
    HCA1   CC3163    CC321     HCA2     9     0.000000     0.836800     3
    HCA1   CC3163    CC321    OC30P     9   180.000000     0.000000     6
    HCA1   CC3163    CC312    OC311     9     0.000000     0.585760     3
    HCA1   CC3163    CC312     HCA1     9     0.000000     0.836800     3
    HCA1   CC3163    CC312    CC312     9     0.000000     0.836800     3
    HCA1   CC3163    CC2O2    OC2D2     9   180.000000     0.209200     6
    HCA1   CC3163    CC331     HCA3     9     0.000000     0.836800     3
    HCA1   CC3163   OC3C61   CC3162     9     0.000000     1.188256     3
    HCA1   CC3163   OC3C61   CC3062     9     0.000000     1.188256     3
    HCA1    CC312   CC3163   OC3C61     9     0.000000     0.836800     3
    HCA1    CC312   CC3163   CC3161     9     0.000000     0.836800     3
    HCA1    CC312    CC322    OC311     9     0.000000     0.585760     3
    HCA1    CC312    CC322     HCA2     9     0.000000     0.836800     3
    HCA1    CC312    CC312    OC311     9     0.000000     0.585760     3
    HCA1    CC312    CC312     HCA1     9     0.000000     0.836800     3
    HCA1    CC312    CC312    CC322     9     0.000000     0.836800     3
    HCA1    CC312    CC2O4     HCR1     9   180.000000     0.000000     6
    HCA1    CC312    OC301   CC3062     9     0.000000     1.188256     3
    HCA1   CC311C   CC321C     HCA2     9     0.000000     0.836800     3
    HCA1   CC311C   CC321D     HCA2     9     0.000000     0.836800     3
    HCA1   CC311C    CC321     HCA2     9     0.000000     0.836800     3
    HCA1   CC311C    CC321    OC30P     9   180.000000     0.000000     6
    HCA1   CC311D   CC321C     HCA2     9     0.000000     0.836800     3
    HCA1   CC311D    OC30P       PC     9     0.000000     1.188256     3
    HCA1   CC311D    OC30P       SC     9     0.000000     0.000000     3
    HCA1   CC311D   CC311D     HCA1     9     0.000000     0.836800     3
    HCA1   CC311D   CC311D    OC30P     9     0.000000     0.836800     3
    HCA1   CC311D   CC311D    NC2D1     9     0.000000     0.836800     3
    HCA1   CC3152   CC3251     HCA2     9     0.000000     0.836800     3
    HCA1   CC3152    OC301    CC331     9     0.000000     1.188256     3
    HCA1   CC3152    OC301    CC321     9     0.000000     1.188256     3
    HCA1   CC3152    OC301     CN7B     9     0.000000     1.255200     1
    HCA1   CC3152    OC301     CN7B     9   180.000000     3.347200     2
    HCA1   CC3151   CC3153     HCA1     9     0.000000     0.836800     3
    HCA1   CC3151   CC3152     HCA1     9     0.000000     0.836800     3
    HCA1   CC3151   CC3151     HCA1     9     0.000000     0.836800     3
    HCA1   CC3153    CC321     HCA2     9     0.000000     0.836800     3
    HCA1   CC3153    CC321    OC30P     9     0.000000     0.815880     3
    HCA1   CC312D    OC301    CC331     9     0.000000     1.188256     3
    HCA1   CC312D    OC301   CC311C     9     0.000000     1.188256     3
    HCA1   CC312D   OC3C5M   CC322C     9     0.000000     1.255200     3
    HCA1   CC312D   CC322C   HCA2C2     9     0.000000     0.836800     3
    HCA1   CC312D    OC302   CC311D     9     0.000000     1.188256     3
    HCA1   CC312C   OC3C5M   CC322C     9     0.000000     1.255200     3
    HCA1   CC312C    CC321     HCA2     9     0.000000     0.836800     3
    HCA1   CC312C    CC321    OC301     9     0.000000     0.836800     3
    HCA1   CC312C    OC303    CC331     9     0.000000     1.188256     3
    HCA1   CC312C    OC303   CC311D     9     0.000000     1.188256     3
   OC2D1    CC2O1    NC2D1    CC311     9   180.000000    10.460000     2
   OC2D1    CC2O1    NC2D1   CC3161     9   180.000000    10.460000     2
   OC2D1    CC2O1    NC2D1    CC331     9   180.000000    10.460000     2
   OC2D1    CC2O5    CC331     HCA3     9   180.000000     0.000000     6
   CC311    NC2D1    CC2O1    CC331     9     0.000000     6.694400     1
   CC311    NC2D1    CC2O1    CC331     9   180.000000    10.460000     2
   CC311    OC301    CC331     HCA3     9     0.000000     1.188256     3
   CC2O1    NC2D1    CC311    CC331     9   180.000000     2.092000     1
   CC2O1    NC2D1    CC311     HCA1     9     0.000000     0.000000     1
   CC2O1    NC2D1   CC3161   CC3161     9   180.000000     2.092000     1
   CC2O1    NC2D1   CC3161     HCA1     9     0.000000     0.000000     1
   CC2O1    NC2D1    CC331     HCA3     9     0.000000     0.000000     3
   CC2O1    NC2D1   CC311D     HCA1     9     0.000000     0.000000     1
   CC2O1    NC2D1   CC311D   CC321C     9   180.000000     2.092000     1
   CC2O1    NC2D1   CC311D   OC3C61     9   180.000000    11.296800     1
   CC2O1    NC2D1   CC311D   OC3C61     9     0.000000     5.355520     2
   CC2O1    NC2D1   CC3162   CC3161     9   180.000000     2.092000     1
   CC2O1    NC2D1   CC3162   OC3C61     9   180.000000    11.296800     1
   CC2O1    NC2D1   CC3162   OC3C61     9     0.000000     5.355520     2
   CC2O1    CC321      CT1       CC     9     0.000000     0.836800     3
   CC2O1    CC321      CT1        C     9     0.000000     0.836800     3
   CC301    OC301    CC331     HCA3     9     0.000000     1.188256     3
   CC301   CC311C   CC321C     HCA2     9     0.000000     0.836800     3
   CC301   CC311C   CC321C   CC321C     9     0.000000     0.836800     3
   CC301   CG2R61   CG2R61    HGR61     9   180.000000    10.041600     2
   CC301   CG2R61   CG2R61   CG2R61     9   180.000000    12.970400     2
   HCP1M   OC311M    CC321    CC321     9   180.000000     1.673600     1
   HCP1M   OC311M    CC321    CC321     9     0.000000     0.041840     2
   HCP1M   OC311M    CC321    CC321     9     0.000000     1.087840     3
  HCA2C2   CC322C   CC322C   HCA2C2     9     0.000000     0.794960     3
  HCA2C2   CC322C   OC3C5M   CC322C     9     0.000000     1.255200     3
  HCA2C2   CC322C   OC3C5M   CC312C     9     0.000000     1.255200     3
  HCA2C2   CC322C   OC3C5M   CC312D     9     0.000000     1.255200     3
  HCA2C2   CC322C   CC312C     HCA1     9     0.000000     0.836800     3
  HCA2C2   CC322C   CC312C    CC321     9     0.000000     0.836800     3
  CC322C   CC322C   CC322C   HCA2C2     9     0.000000     0.794960     3
  CC322C   CC322C   CC322C   CC322C     9   180.000000     1.715440     3
  CC322C   CC322C   OC3C5M   CC322C     9     0.000000     2.092000     3
  CC322C   CC322C   OC3C5M   CC312C     9     0.000000     2.092000     3
  CC322C   CC322C   OC3C5M   CC312D     9     0.000000     2.092000     3
  CC322C   CC322C   CC312C   HCA1C2     9     0.000000     0.836800     3
  CC322C   CC322C   CC312C    OC301     9     0.000000     0.836800     3
  CC322C   CC322C   CC312C     HCA1     9     0.000000     0.836800     3
  CC322C   CC322C   CC312C    OC303     9     0.000000     0.836800     3
  CC322C   CC322C   CC312D    OC301     9     0.000000     8.284320     1
  CC322C   CC322C   CC312D    OC301     9     0.000000    10.711040     2
  CC322C   CC322C   CC312D    OC301     9     0.000000     7.531200     3
  CC322C   CC322C   CC312D    OC302     9     0.000000     8.284320     1
  CC322C   CC322C   CC312D    OC302     9     0.000000    10.711040     2
  CC322C   CC322C   CC312D    OC302     9     0.000000     7.531200     3
  CC322C   CC322C   CC312D     HCA1     9     0.000000     0.836800     3
  CC322C   CC312C    CC331     HCA3     9     0.000000     0.836800     3
  CC322C   CC312C   CC322C   HCA2C2     9     0.000000     0.836800     3
  CC322C   CC312C   CC322C   CC322C     9   180.000000     1.715440     3
  CC322C   CC312C   OC3C5M   CC322C     9     0.000000     2.092000     3
  CC322C   CC312C    OC301    CC331     9   180.000000     0.878640     1
  CC322C   CC312C    OC301    CC331     9   180.000000     1.422560     2
  CC322C   CC312C    OC301    CC331     9   180.000000     3.096160     3
  CC322C   CC312C    CC321     HCA2     9     0.000000     0.836800     3
  CC322C   CC312C    CC321    OC301     9   180.000000     4.602400     1
  CC322C   CC312C    CC321    OC301     9   180.000000     0.292880     2
  CC322C   CC312C    CC321    OC301     9     0.000000     0.627600     3
  CC322C   CC312C    OC303    CC331     9   180.000000     1.715440     1
  CC322C   CC312C    OC303    CC331     9     0.000000     1.213360     2
  CC322C   CC312C    OC303    CC331     9     0.000000     1.757280     3
  CC322C   OC3C5M   CC312D    OC301     9     0.000000     7.865920     1
  CC322C   OC3C5M   CC312D    OC301     9     0.000000     9.121120     2
  CC322C   OC3C5M   CC312D    OC301     9     0.000000     1.004160     3
  CC322C   OC3C5M   CC312D    OC302     9     0.000000     7.865920     1
  CC322C   OC3C5M   CC312D    OC302     9     0.000000     9.121120     2
  CC322C   OC3C5M   CC312D    OC302     9     0.000000     1.004160     3
  CC322C   CC312D    OC301    CC331     9   180.000000     4.058480     1
  CC322C   CC312D    OC301    CC331     9   180.000000     1.840960     3
  CC322C   CC312D   OC3C5M   CC322C     9     0.000000     2.092000     3
  OC3C5M   CC322C   CC322C   HCA2C2     9     0.000000     0.794960     3
  OC3C5M   CC322C   CC322C   CC322C     9     0.000000     0.000000     3
  OC3C5M   CC322C   CC322C   CC312C     9     0.000000     0.000000     3
  OC3C5M   CC322C   CC312C     HCA1     9     0.000000     0.836800     3
  OC3C5M   CC322C   CC312C   CC322C     9     0.000000     0.000000     3
  OC3C5M   CC312C    CC331     HCA3     9     0.000000     0.836800     3
  OC3C5M   CC312C   CC322C   HCA2C2     9     0.000000     0.836800     3
  OC3C5M   CC312C   CC322C   CC322C     9     0.000000     0.000000     3
  OC3C5M   CC312C    CC321     HCA2     9     0.000000     0.836800     3
  OC3C5M   CC312D   CC322C   HCA2C2     9     0.000000     0.836800     3
  OC3C5M   CC312D   CC322C   CC322C     9     0.000000     0.000000     3
  HCA1C2   CC312C    CC331     HCA3     9     0.000000     0.836800     3
  HCA1C2   CC312C   CC322C   HCA2C2     9     0.000000     0.836800     3
  HCA1C2   CC312C   OC3C5M   CC322C     9     0.000000     1.255200     3
  HCA1C2   CC312C    OC301    CC331     9     0.000000     1.188256     3
  CC312C   CC322C   CC322C   HCA2C2     9     0.000000     0.794960     3
  CC312C   CC322C   CC322C   CC322C     9   180.000000     1.715440     3
  CC312C   CC322C   OC3C5M   CC322C     9     0.000000     2.092000     3
  CC312C    OC301    CC331     HCA3     9     0.000000     1.188256     3
  CC312C    CC321    OC301    CC331     9   180.000000     2.677760     1
  CC312C    CC321    OC301    CC331     9   180.000000     0.125520     2
  CC312C    CC321    OC301    CC331     9     0.000000     2.552240     3
  CC312C    OC303    CC331     HCA3     9     0.000000     1.188256     3
  CC312C    OC303   CC311D     HCA1     9     0.000000     1.188256     3
  CC312C    OC303   CC311D   OC3C61     9     0.000000     0.334720     1
  CC312C    OC303   CC311D   OC3C61     9     0.000000     3.891120     2
  CC312C    OC303   CC311D   OC3C61     9     0.000000     0.209200     3
  CC312C    OC303   CC311D   CC321C     9   180.000000     0.209200     1
  CC312C    OC303   CC311D   CC321C     9   180.000000     1.589920     2
  CC312C    OC303   CC311D   CC321C     9     0.000000     1.506240     3
  OC3C51   CC3152    OC311     HCP1     9     0.000000     4.895280     1
  OC3C51   CC3152    OC311     HCP1     9     0.000000     3.556400     2
  OC3C51   CC3152    OC311     HCP1     9     0.000000     1.548080     3
  OC3C51   CC3152   CC3251     HCA2     9     0.000000     0.836800     3
  OC3C51   CC3152   CC3151     HCA1     9     0.000000     0.836800     3
  OC3C51   CC3152   CC3151    OC311     9   180.000000     5.271840     1
  OC3C51   CC3152   CC3151    OC311     9     0.000000     5.313680     2
  OC3C51   CC3152   CC3151    OC311     9     0.000000     2.217520     3
  OC3C51   CC3152    CC321     HCA2     9     0.000000     0.836800     3
  OC3C51   CC3152    OC301     CN7B     9     0.000000     2.510400     2
  OC3C51   CC3152    OC301     CN7B     9     0.000000     0.836800     3
  OC3C51   CC3051    OC311     HCP1     9     0.000000     3.765600     1
  OC3C51   CC3051    OC311     HCP1     9     0.000000     4.769760     2
  OC3C51   CC3051    OC311     HCP1     9   180.000000     0.460240     3
  OC3C51   CC3051   CC3251     HCA2     9     0.000000     0.836800     3
  OC3C51   CC3051   CC3151     HCA1     9     0.000000     0.836800     3
  OC3C51   CC3051   CC3151    OC311     9   180.000000     1.338880     1
  OC3C51   CC3051   CC3151    OC311     9   180.000000     2.719600     2
  OC3C51   CC3051   CC3151    OC311     9     0.000000    10.962080     3
  OC3C51   CC3051   CC3151    OC303     9   180.000000     1.338880     1
  OC3C51   CC3051   CC3151    OC303     9   180.000000     2.719600     2
  OC3C51   CC3051   CC3151    OC303     9     0.000000    10.962080     3
  OC3C51   CC3051    CC321     HCA2     9     0.000000     0.836800     3
  OC3C51   CC3051    CC321    OC311     9     0.000000     2.175680     1
  OC3C51   CC3051    CC321    OC311     9   180.000000     4.853440     2
  OC3C51   CC3051    CC321    OC311     9   180.000000     1.380720     3
  OC3C51   CC3051    CC321    OC301     9   180.000000     8.075120     1
  OC3C51   CC3051    CC321    OC301     9     0.000000     1.799120     2
  OC3C51   CC3051    CC321    OC301     9   180.000000     0.502080     3
  OC3C51   CC3153   CC3151     HCA1     9     0.000000     0.836800     3
  OC3C51   CC3153   CC3151    OC311     9     0.000000     0.585760     1
  OC3C51   CC3153   CC3151    OC311     9     0.000000     2.928800     2
  OC3C51   CC3153   CC3151    OC311     9     0.000000     0.753120     3
  OC3C51   CC3153   CC3151    OC303     9     0.000000     0.585760     1
  OC3C51   CC3153   CC3151    OC303     9     0.000000     2.928800     2
  OC3C51   CC3153   CC3151    OC303     9     0.000000     0.753120     3
  OC3C51   CC3153    CC321     HCA2     9     0.000000     0.836800     3
  OC3C51   CC3153    CC321    OC311     9   180.000000     6.276000     1
  OC3C51   CC3153    CC321    OC311     9     0.000000     2.426720     2
  OC3C51   CC3153    CC321    OC311     9     0.000000     2.259360     3
  OC3C51   CC3153    CC321    OC301     9   180.000000     8.075120     1
  OC3C51   CC3153    CC321    OC301     9     0.000000     1.799120     2
  OC3C51   CC3153    CC321    OC301     9   180.000000     0.502080     3
  OC3C51   CC3153    CC321    OC30P     9   180.000000    14.225600     1
  CC3152   CC3251   CC3151   CC3153     9     0.000000     7.656720     3
  CC3152   CC3251   CC3151    OC311     9     0.000000     1.631760     1
  CC3152   CC3251   CC3151    OC311     9     0.000000     5.020800     2
  CC3152   CC3251   CC3151    OC311     9   180.000000     5.941280     3
  CC3152   CC3251   CC3151     HCA1     9     0.000000     0.836800     3
  CC3152   CC3151   CC3151   CC3153     9   180.000000     2.677760     3
  CC3152   CC3151   CC3151    OC311     9   180.000000     3.389040     1
  CC3152   CC3151   CC3151    OC311     9     0.000000     4.476880     2
  CC3152   CC3151   CC3151    OC311     9     0.000000     0.460240     3
  CC3152   CC3151   CC3151     HCA1     9     0.000000     0.836800     3
  CC3152   CC3151    OC311     HCP1     9     0.000000     1.213360     1
  CC3152   CC3151    OC311     HCP1     9     0.000000     2.301200     2
  CC3152   CC3151    OC311     HCP1     9     0.000000     0.334720     3
  CC3152   OC3C51   CC3153   CC3151     9     0.000000     4.184000     3
  CC3152   OC3C51   CC3153    CC321     9     0.000000     1.255200     3
  CC3152   OC3C51   CC3153     HCA1     9     0.000000     1.255200     3
  CC3152    OC301    CC331     HCA3     9     0.000000     1.188256     3
  CC3152    OC301   CC3161   CC3162     9   180.000000     0.502080     1
  CC3152    OC301   CC3161   CC3162     9   180.000000     0.125520     2
  CC3152    OC301   CC3161   CC3162     9     0.000000     0.585760     3
  CC3152    OC301   CC3161   CC3161     9   180.000000     0.502080     1
  CC3152    OC301   CC3161   CC3161     9   180.000000     0.125520     2
  CC3152    OC301   CC3161   CC3161     9     0.000000     0.585760     3
  CC3051   CC3251   CC3151   CC3153     9     0.000000     7.656720     3
  CC3051   CC3251   CC3151    OC311     9     0.000000     1.631760     1
  CC3051   CC3251   CC3151    OC311     9     0.000000     5.020800     2
  CC3051   CC3251   CC3151    OC311     9   180.000000     5.941280     3
  CC3051   CC3251   CC3151     HCA1     9     0.000000     0.836800     3
  CC3051   CC3151   CC3151   CC3153     9     0.000000     9.916080     3
  CC3051   CC3151   CC3151    OC311     9     0.000000     8.660880     1
  CC3051   CC3151   CC3151    OC311     9     0.000000     8.911920     2
  CC3051   CC3151   CC3151    OC311     9   180.000000    11.338640     3
  CC3051   CC3151   CC3151     HCA1     9     0.000000     0.836800     3
  CC3051   CC3151   CC3151    OC303     9     0.000000     8.660880     1
  CC3051   CC3151   CC3151    OC303     9     0.000000     8.911920     2
  CC3051   CC3151   CC3151    OC303     9   180.000000    11.338640     3
  CC3051   CC3151    OC311     HCP1     9   180.000000     1.673600     1
  CC3051   CC3151    OC311     HCP1     9     0.000000     2.008320     2
  CC3051   CC3151    OC311     HCP1     9     0.000000     0.794960     3
  CC3051    CC321    OC311     HCP1     9   180.000000     1.673600     1
  CC3051    CC321    OC311     HCP1     9     0.000000     2.008320     2
  CC3051    CC321    OC311     HCP1     9     0.000000     0.794960     3
  CC3051    CC321    OC301   CC3051     9   180.000000     2.677760     1
  CC3051    CC321    OC301   CC3051     9   180.000000     0.125520     2
  CC3051    CC321    OC301   CC3051     9     0.000000     2.552240     3
  CC3051   OC3C51   CC3153   CC3151     9     0.000000     1.799120     3
  CC3051   OC3C51   CC3153    CC321     9     0.000000    10.794720     1
  CC3051   OC3C51   CC3153    CC321     9   180.000000     1.004160     2
  CC3051   OC3C51   CC3153    CC321     9   180.000000     1.506240     3
  CC3051   OC3C51   CC3153     HCA1     9     0.000000     1.255200     3
  CC3051    OC302   CC3162   OC3C61     9     0.000000     0.878640     1
  CC3051    OC302   CC3162   OC3C61     9     0.000000     3.598240     2
  CC3051    OC302   CC3162   OC3C61     9   180.000000     1.464400     3
  CC3051    OC302   CC3162   CC3161     9   180.000000     0.753120     1
  CC3051    OC302   CC3162   CC3161     9   180.000000     1.882800     2
  CC3051    OC302   CC3162   CC3161     9     0.000000     3.138000     3
  CC3051    OC302   CC3162     HCA1     9     0.000000     1.188256     3
  CC3251   CC3151   CC3153    CC321     9     0.000000     0.836800     3
  CC3251   CC3151   CC3153   OC3C51     9     0.000000     3.932960     3
  CC3251   CC3151   CC3153     HCA1     9     0.000000     0.836800     3
  CC3251   CC3151    OC311     HCP1     9     0.000000     2.468560     1
  CC3251   CC3151    OC311     HCP1     9     0.000000     1.589920     2
  CC3251   CC3151    OC311     HCP1     9     0.000000     0.543920     3
  CC3251   CC3152    OC311     HCP1     9     0.000000     2.468560     1
  CC3251   CC3152    OC311     HCP1     9     0.000000     1.589920     2
  CC3251   CC3152    OC311     HCP1     9     0.000000     0.543920     3
  CC3251   CC3051    OC311     HCP1     9     0.000000     2.468560     1
  CC3251   CC3051    OC311     HCP1     9     0.000000     1.589920     2
  CC3251   CC3051    OC311     HCP1     9     0.000000     0.543920     3
  CC3151   CC3151   CC3153    CC321     9     0.000000     0.836800     3
  CC3151   CC3151   CC3153   OC3C51     9     0.000000     5.188160     3
  CC3151   CC3151   CC3153     HCA1     9     0.000000     0.836800     3
  CC3151   CC3151   CC3051    CC321     9     0.000000     0.836800     3
  CC3151   CC3151   CC3051    OC311     9     0.000000     9.330320     1
  CC3151   CC3151   CC3051    OC311     9     0.000000    12.552000     2
  CC3151   CC3151   CC3051    OC311     9   180.000000     3.681920     3
  CC3151   CC3151   CC3051   OC3C51     9     0.000000     2.594080     3
  CC3151   CC3151   CC3051    OC301     9     0.000000     9.330320     1
  CC3151   CC3151   CC3051    OC301     9     0.000000    12.552000     2
  CC3151   CC3151   CC3051    OC301     9   180.000000     3.681920     3
  CC3151   CC3151   CC3051    OC302     9     0.000000     9.330320     1
  CC3151   CC3151   CC3051    OC302     9     0.000000    12.552000     2
  CC3151   CC3151   CC3051    OC302     9   180.000000     3.681920     3
  CC3151   CC3151   CC3152    OC311     9   180.000000     0.460240     1
  CC3151   CC3151   CC3152    OC311     9     0.000000     2.761440     2
  CC3151   CC3151   CC3152    OC311     9   180.000000     0.083680     3
  CC3151   CC3151   CC3152   OC3C51     9     0.000000     5.188160     3
  CC3151   CC3151   CC3152     HCA1     9     0.000000     0.836800     3
  CC3151   CC3151   CC3152    OC301     9   180.000000     0.460240     1
  CC3151   CC3151   CC3152    OC301     9     0.000000     2.761440     2
  CC3151   CC3151   CC3152    OC301     9   180.000000     0.083680     3
  CC3151   CC3151    OC311     HCP1     9     0.000000     1.213360     1
  CC3151   CC3151    OC311     HCP1     9     0.000000     2.301200     2
  CC3151   CC3151    OC311     HCP1     9     0.000000     0.334720     3
  CC3151   CC3251   CC3152    OC311     9   180.000000     2.343040     1
  CC3151   CC3251   CC3152    OC311     9   180.000000     1.255200     2
  CC3151   CC3251   CC3152    OC311     9   180.000000     1.464400     3
  CC3151   CC3251   CC3152   OC3C51     9     0.000000     3.932960     3
  CC3151   CC3251   CC3152     HCA1     9     0.000000     0.836800     3
  CC3151   CC3251   CC3051    OC311     9   180.000000     2.343040     1
  CC3151   CC3251   CC3051    OC311     9   180.000000     1.255200     2
  CC3151   CC3251   CC3051    OC311     9   180.000000     1.464400     3
  CC3151   CC3251   CC3051   OC3C51     9     0.000000     3.932960     3
  CC3151   CC3153    CC321    OC311     9     0.000000     0.041840     1
  CC3151   CC3153    CC321    OC311     9     0.000000     0.585760     2
  CC3151   CC3153    CC321    OC311     9   180.000000     2.928800     3
  CC3151   CC3153    CC321     HCA2     9     0.000000     0.836800     3
  CC3151   CC3153    CC321    OC30P     9   180.000000    10.460000     1
  CC3151   CC3153    CC321    OC30P     9     0.000000     1.673600     2
  CC3151   CC3153    CC321    OC30P     9   180.000000     3.347200     3
  CC3151   CC3153    CC321    OC30P     9   180.000000     0.836800     4
  CC3151   CC3051    CC321    OC311     9     0.000000     6.652560     1
  CC3151   CC3051    CC321    OC311     9   180.000000     3.974800     2
  CC3151   CC3051    CC321    OC311     9     0.000000     8.158800     3
  CC3151   CC3051    CC321     HCA2     9     0.000000     0.836800     3
  CC3151   CC3051    OC311     HCP1     9   180.000000     1.673600     1
  CC3151   CC3051    OC311     HCP1     9     0.000000     2.008320     2
  CC3151   CC3051    OC311     HCP1     9     0.000000     0.794960     3
  CC3151   CC3152    OC311     HCP1     9     0.000000     1.213360     1
  CC3151   CC3152    OC311     HCP1     9     0.000000     2.301200     2
  CC3151   CC3152    OC311     HCP1     9     0.000000     0.334720     3
  CC3151   CC3152    CC321     HCA2     9     0.000000     0.836800     3
  CC3151   CC3152    OC301    CC331     9   180.000000     0.878640     1
  CC3151   CC3152    OC301    CC331     9   180.000000     1.422560     2
  CC3151   CC3152    OC301    CC331     9   180.000000     3.096160     3
  CC3151   CC3152    OC301     CN7B     9   180.000000     1.255200     1
  CC3151   CC3152    OC301     CN7B     9   180.000000     3.347200     2
  CC3153   CC3151   CC3151    OC311     9   180.000000     0.041840     1
  CC3153   CC3151   CC3151    OC311     9     0.000000     3.012480     2
  CC3153   CC3151   CC3151    OC311     9     0.000000     3.054320     3
  CC3153   CC3151   CC3151     HCA1     9     0.000000     0.836800     3
  CC3153   CC3151   CC3151    OC303     9   180.000000     0.041840     1
  CC3153   CC3151   CC3151    OC303     9     0.000000     3.012480     2
  CC3153   CC3151   CC3151    OC303     9     0.000000     3.054320     3
  CC3153   CC3151    OC311     HCP1     9     0.000000     1.213360     1
  CC3153   CC3151    OC311     HCP1     9     0.000000     2.301200     2
  CC3153   CC3151    OC311     HCP1     9     0.000000     0.334720     3
  CC3153   CC3151   CC3251     HCA2     9     0.000000     0.836800     3
  CC3153    CC321    OC311     HCP1     9     0.000000     0.502080     1
  CC3153    CC321    OC311     HCP1     9     0.000000     1.757280     2
  CC3153    CC321    OC311     HCP1     9     0.000000     1.213360     3
  CC3153    CC321    OC301   CC3051     9   180.000000     2.677760     1
  CC3153    CC321    OC301   CC3051     9   180.000000     0.125520     2
  CC3153    CC321    OC301   CC3051     9     0.000000     2.552240     3
  CC3153    CC321    OC301   CC3162     9   180.000000     2.677760     1
  CC3153    CC321    OC301   CC3162     9   180.000000     0.125520     2
  CC3153    CC321    OC301   CC3162     9     0.000000     2.552240     3
  CC3153    CC321    OC301   CC3152     9   180.000000     2.677760     1
  CC3153    CC321    OC301   CC3152     9   180.000000     0.125520     2
  CC3153    CC321    OC301   CC3152     9     0.000000     2.552240     3
  CC3153    CC321    OC30P       PC     9   180.000000     2.510400     1
  CC3153    CC321    OC30P       PC     9     0.000000     2.719600     2
  CC3153    CC321    OC30P       PC     9     0.000000     0.209200     3
  CC3153   OC3C51   CC3152   CC3151     9     0.000000     4.184000     3
  CC3153   OC3C51   CC3152   CC3251     9     0.000000     1.882800     3
  CC3153   OC3C51   CC3152     HCA1     9     0.000000     1.255200     3
  CC3153   OC3C51   CC3051   CC3151     9     0.000000     2.552240     3
  CC3153   OC3C51   CC3051   CC3251     9     0.000000     2.552240     3
  CC3153   OC3C51   CC3051    CC321     9     0.000000     1.004160     1
  CC3153   OC3C51   CC3051    CC321     9   180.000000    12.552000     2
  CC3153   OC3C51   CC3051    CC321     9   180.000000     5.773920     3
  CC3153   OC3C51   CC3051    OC301     9   180.000000     0.794960     1
  CC3153   OC3C51   CC3051    OC301     9   180.000000    11.924400     2
  CC3153   OC3C51   CC3051    OC301     9     0.000000     3.598240     3
   OC30P   CC3161   CC3161    OC311     9   180.000000    10.460000     1
   OC30P   CC3161   CC3161    OC311     9     0.000000     8.368000     2
   OC30P   CC3161   CC3161    OC311     9     0.000000    10.460000     3
   OC30P   CC3161   CC3161    OC301     9   180.000000    10.460000     1
   OC30P   CC3161   CC3161    OC301     9     0.000000     8.368000     2
   OC30P   CC3161   CC3161    OC301     9     0.000000    10.460000     3
   OC30P   CC3161   CC3161    OC30P     9     0.000000     5.313680     3
   OC30P   CC3161   CC3162    OC301     9   180.000000    10.460000     1
   OC30P   CC3161   CC3162    OC301     9     0.000000     8.368000     2
   OC30P   CC3161   CC3162    OC301     9     0.000000    10.460000     3
   OC30P   CC311D   CC3161    OC311     9   180.000000    10.460000     1
   OC30P   CC311D   CC3161    OC311     9     0.000000     8.368000     2
   OC30P   CC311D   CC3161    OC311     9     0.000000    10.460000     3
   OC30P   CC311D   CC311D    OC30P     9     0.000000     5.313680     3
   OC30P   CC3162   CC3161    OC311     9   180.000000    10.460000     1
   OC30P   CC3162   CC3161    OC311     9     0.000000     8.368000     2
   OC30P   CC3162   CC3161    OC311     9     0.000000    10.460000     3
   OC30P       PC    OC312     HCP1     9     0.000000     1.255200     3
   OC30P       PL     OSLP     CTL2     9   180.000000     5.020800     1
   OC30P       PL     OSLP     CTL2     9   180.000000     0.418400     2
   OC30P       PL     OSLP     CTL2     9   180.000000     0.418400     3
   OC312       PC    OC312     HCP1     9     0.000000     1.255200     3
   OC2DP       PC    OC312     HCP1     9     0.000000     1.255200     3
   OC2DP       SC    NC311     HCP1     9     0.000000     1.046000     3
  CC312D    OC301    CC331     HCA3     9     0.000000     1.188256     3
  CC312D    OC301   CC311C     HCA1     9     0.000000     1.188256     3
  CC312D    OC301   CC311C   CC321C     9   180.000000     0.502080     1
  CC312D    OC301   CC311C   CC321C     9   180.000000     0.125520     2
  CC312D    OC301   CC311C   CC321C     9     0.000000     0.585760     3
  CC312D    OC302   CC311D   OC3C61     9     0.000000     0.878640     1
  CC312D    OC302   CC311D   OC3C61     9     0.000000     3.598240     2
  CC312D    OC302   CC311D   OC3C61     9   180.000000     1.464400     3
  CC312D    OC302   CC311D   CC321C     9   180.000000     0.753120     1
  CC312D    OC302   CC311D   CC321C     9   180.000000     1.882800     2
  CC312D    OC302   CC311D   CC321C     9     0.000000     3.138000     3
  CC312D    OC302   CC311D     HCA1     9     0.000000     1.188256     3
  CC312D   CC322C   CC322C   HCA2C2     9     0.000000     0.794960     3
  CC312D   CC322C   CC322C   CC322C     9   180.000000     1.715440     3
   OC303   CC312C   CC322C   OC3C5M     9     0.000000     3.054320     1
   OC303   CC312C   CC322C   OC3C5M     9     0.000000    12.384640     2
   OC303   CC312C   CC322C   OC3C5M     9     0.000000     5.815760     3
   OC303   CC312C   CC322C   HCA2C2     9     0.000000     0.836800     3
   OC303   CC311D   CC321C   CC321C     9     0.000000     0.836800     3
   OC303   CC311D   CC321C     HCA2     9     0.000000     0.836800     3
   OC303   CC3162   CC3161     HCA1     9     0.000000     0.836800     3
   OC303   CC3162   CC3161    OC311     9   180.000000    11.087600     1
   OC303   CC3162   CC3161    OC311     9     0.000000     0.000000     2
   OC303   CC3162   CC3161    OC311     9   180.000000     0.543920     3
   OC303   CC3151   CC3151    OC311     9   180.000000    12.008080     1
   OC303   CC3151   CC3151    OC311     9     0.000000     0.125520     2
   OC303   CC3151   CC3151    OC311     9     0.000000     0.962320     3
   OC303   CC3151   CC3151     HCA1     9     0.000000     0.585760     3
   OC303   CC3151   CC3153     HCA1     9     0.000000     0.585760     3
      SC    OC30P   CC3162   OC3C61     9     0.000000     3.179840     1
      SC    OC30P   CC3162   OC3C61     9     0.000000     2.845120     2
      SC    OC30P   CC3162   OC3C61     9   180.000000     1.087840     3
      SC    OC30P   CC3162   CC3161     9     0.000000     0.878640     3
      SC    OC30P   CC3162     HCA1     9     0.000000     0.000000     3
      SC    NC311   CC3161     HCA1     9     0.000000     0.418400     3
   NC311   CC3161   CC3161   CC3161     9     0.000000     0.836800     3
   NC311   CC3161   CC3161     HCA1     9     0.000000     0.836800     3
   NC311   CC3161   CC3161    OC311     9     0.000000     0.836800     3
   NC311   CC3161   CC3161    OC301     9     0.000000     0.836800     3
   NC311   CC3161   CC3161    OC30P     9     0.000000     0.836800     3
   NC311   CC3161   CC3162   OC3C61     9     0.000000     0.836800     3
   NC311   CC3161   CC3162     HCA1     9     0.000000     0.836800     3
   NC311   CC3161   CC3162    OC311     9     0.000000     0.836800     3
   NC311   CC3161   CC3162    OC301     9     0.000000     0.836800     3
     CN7      ON6     CN8B      HN8     9     0.000000     0.815880     1
     CN7      ON6     CN8B      CN8     9     0.000000     2.510400     3
     CN7      ON6     CN8B      CN8     9   180.000000     2.510400     6
     CN7      ON6     CN7B      NN2     9     0.000000     0.000000     3
     CN7      ON6     CN7B     NN2B     9     0.000000     0.000000     3
     CN7      ON6     CN7B      NR1     9     0.000000     0.000000     3
     CN7      ON6     CN7B      CNA     9     0.000000     0.000000     3
     CN7      CN7      CN8     CN8B     9     0.000000     0.418400     3
     CN7      CN7      CN8     CN8B     9     0.000000     2.092000     4
     CN7      CN7      CN7      ON6     9     0.000000     2.510400     6
     CN7      CN7      CN7     CN8B     9   180.000000     2.092000     4
     CN7      CN7     CN7B      ON6     9     0.000000     2.510400     6
     CN7      CN7     CN7B      ON5     9     0.000000     0.000000     3
     CN7      CN7     CN7B     ON2M     9     0.000000     0.000000     3
     CN7      CN7     CN7B     ON6B     9     0.000000     0.000000     2
     CN7      CN7     CN7B      NN2     9     0.000000     0.000000     3
     CN7      CN7     CN8B      ON2     9   180.000000    10.460000     1
     CN7      CN7     CN8B      ON2     9     0.000000     1.673600     2
     CN7      CN7     CN8B      ON2     9   180.000000     3.347200     3
     CN7      CN7     CN8B      ON2     9   180.000000     0.836800     4
     CN7      CN7     CN8B      ON5     9   180.000000    10.460000     1
     CN7      CN7     CN8B      ON5     9     0.000000     1.673600     2
     CN7      CN7     CN8B      ON5     9   180.000000     3.347200     3
     CN7      CN7     CN8B      ON5     9   180.000000     0.836800     4
     CN7      CN7     CN8B        S     9   180.000000    10.460000     1
     CN7      CN7     CN8B        S     9     0.000000     1.673600     2
     CN7      CN7     CN8B        S     9   180.000000     3.347200     3
     CN7      CN7     CN8B        S     9   180.000000     0.836800     4
     CN7      CN7     CN8B       SP     9   180.000000    10.460000     1
     CN7      CN7     CN8B       SP     9     0.000000     1.673600     2
     CN7      CN7     CN8B       SP     9   180.000000     3.347200     3
     CN7      CN7     CN8B       SP     9   180.000000     0.836800     4
     CN7      CN7     CN8B      NN1     9   180.000000    10.460000     1
     CN7      CN7     CN8B      NN1     9     0.000000     1.673600     2
     CN7      CN7     CN8B      NN1     9   180.000000     3.347200     3
     CN7      CN7     CN8B      NN1     9   180.000000     0.836800     4
     CN7      CN7      CN9      HN9     9     0.000000     0.815880     3
     CN7      CN7      ON2       P2     9   180.000000     7.949600     1
     CN7      CN7      ON2       P2     9     0.000000     1.673600     2
     CN7      CN7      ON2       P2     9   180.000000     0.000000     3
     CN7      CN7      ON2       P2     9     0.000000     0.836800     4
     CN7      CN7      ON2       P2     9     0.000000     2.510400     5
     CN7      CN7      ON2        P     9   180.000000     7.949600     1
     CN7      CN7      ON2        P     9     0.000000     1.673600     2
     CN7      CN7      ON2        P     9   180.000000     0.000000     3
     CN7      CN7      ON2        P     9     0.000000     0.836800     4
     CN7      CN7      ON2        P     9     0.000000     2.510400     5
     CN7      CN7      ON5      HN5     9     0.000000     6.276000     1
     CN7      CN7      ON5      HN5     9   180.000000     1.255200     2
     CN7      CN7      ON5      HN5     9     0.000000     2.092000     3
     CN7      CN7      ON5      HN7     9     0.000000     4.184000     1
     CN7      CN7      ON5      HN7     9     0.000000     2.092000     3
     CN7      CN7      ON6     CN7B     9   180.000000     2.510400     6
     CN7      CN7     ON6B     CN7B     9   180.000000     0.000000     6
     CN7      CN7      NN2      CN4     9   180.000000     2.092000     1
     CN7      CN7      NN2      CN5     9   180.000000     4.602400     1
     CN7      CN7     NN2B      CN4     9   180.000000     2.092000     1
     CN7      CN7     NN2B      CN5     9   180.000000     4.602400     1
     CN7     CN7B      ON6      CN7     9   180.000000     2.510400     6
     CN7     CN7B     CN7B      NN2     9     0.000000     0.000000     3
     CN7     CN7B     CN7B     NN2B     9     0.000000     0.000000     3
     CN7     CN7B     CN7B     ON6B     9     0.000000     1.673600     6
     CN7     CN7B     CN7B      NR1     9     0.000000     0.000000     3
     CN7     CN7B      ON2        P     9   180.000000    10.460000     1
     CN7     CN7B      CNA      CNA     9   180.000000     0.962320     2
     CN7     CN7B     ON2M      CN9     9   180.000000     0.836800     1
     CN7     CN7B     ON2M      CN9     9   180.000000     7.740400     2
     CN7     CN7B     ON2M      CN9     9     0.000000     4.184000     3
     CN7     CN7B      NN2      CN1     9     0.000000     4.184000     3
     CN7     CN7B      NN2      CN3     9   180.000000     0.000000     3
     CN7     CN7B      NN2     CN3B     9     0.000000     0.000000     3
     CN7     CN7B      NN2     CN3C     9     0.000000     0.000000     3
     CN7     CN7B      NN2      CN5     9     0.000000     1.255200     3
     CN7     CN7B      NN2      CN4     9   180.000000     0.000000     3
     CN7     CN7B     ON6B     CN8B     9   180.000000     3.347200     3
     CN7     CN7B    OC301   CC3152     9   180.000000     1.255200     1
     CN7     CN7B    OC301   CC3152     9   180.000000     3.347200     2
     CN7     ON6B     CN7B      NN2     9     0.000000     0.000000     3
     CN7     ON6B     CN7B     NN2B     9     0.000000     0.000000     3
     CN7     ON6B     CN7B      NR1     9     0.000000     0.000000     3
     CN7      CN8     CN7B      NN2     9     0.000000     0.000000     3
     CN7      CN8     CN7B     NN2B     9     0.000000     0.000000     3
     CN7      CN8     CN7B      ON6     9     0.000000     2.510400     6
     CN7      CN8     CN7B      CNA     9     0.000000     0.000000     3
     CN7      CN8      CN7     NN2B     9   180.000000     4.184000     1
     CN7      CN8      CN7     NN2B     9   180.000000     3.347200     3
     CN7      CN8      CN6      NN2     9     0.000000     2.928800     3
     CN7     CN8B      ON2        P     9   120.000000     0.836800     1
     CN7     CN8B      ON2       P2     9   120.000000     0.836800     1
     CN7     CN8B      ON2      HN8     9     0.000000     4.184000     1
     CN7     CN8B      ON2      HN8     9     0.000000     2.092000     3
     CN7     CN8B      ON5      HN5     9     0.000000     5.564720     1
     CN7     CN8B      ON5      HN5     9     0.000000     0.753120     2
     CN7     CN8B      ON5      HN5     9     0.000000     1.338880     3
     CN7     CN8B        S      CT2     9   120.000000     0.836800     1
     CN7     CN8B       SP      CT2     9   180.000000     1.635944     1
     CN7     CN8B       SP      CT2     9     0.000000     1.560632     3
     CN7     CN8B      CN6     NN2B     9     0.000000     2.928800     3
     CN7     CN8B      CN6      NN2     9     0.000000     2.928800     3
     CN7     CN8B     ON6B     CN7B     9     0.000000     0.000000     3
     CN7     CN7E      CN6      CN8     9     0.000000     0.627600     3
     CN7     CN7E      CN6      CN7     9     0.000000     0.627600     3
     CN7     CN7E      CN6      HN7     9     0.000000     0.627600     3
     CN7     CN7E     CN8B      ON2     9   180.000000     5.230000     1
     CN7     CN7E     CN8B      ON2     9     0.000000     0.418400     2
     CN7     CN7E     CN8B      ON2     9   180.000000     0.627600     3
     CN7     CN7E     CN8B      HN8     9     0.000000     0.815880     3
     CN7      CN6     CN8B      ON2     9     0.000000     2.092000     2
     CN7      CN6     CN8B      ON5     9     0.000000     2.092000     2
     ON6     CN8B      CN8      HN8     9     0.000000     0.815880     1
     ON6     CN8B      CN8      CN7     9   180.000000     1.673600     3
     ON6     CN8B      CN8      CN7     9     0.000000     1.673600     4
     ON6     CN8B      CN8      CN7     9   180.000000     2.928800     5
     ON6     CN7B      NN2      CN5     9   180.000000     4.602400     1
     ON6     CN7B      NN2      CN4     9     0.000000     4.602400     1
     ON6     CN7B      NN2      CN1     9     0.000000     0.000000     3
     ON6     CN7B      NN2      CN3     9     0.000000     4.184000     1
     ON6     CN7B      NN2     CN3B     9     0.000000     0.000000     3
     ON6     CN7B      NN2     CN3C     9     0.000000     0.000000     3
     ON6     CN7B     NN2B      CN1     9     0.000000     0.000000     3
     ON6     CN7B     NN2B     CN1T     9   180.000000     3.347200     1
     ON6     CN7B     NN2B     CN1T     9     0.000000     2.928800     3
     ON6     CN7B     NN2B      CN3     9     0.000000     3.765600     1
     ON6     CN7B     NN2B      CN5     9   180.000000     4.602400     1
     ON6     CN7B     NN2B      CN5     9     0.000000     0.836800     3
     ON6     CN7B     NN2B      CN4     9     0.000000     5.857600     1
     ON6     CN7B      NR1     CPH1     9   180.000000     2.510400     1
     ON6     CN7B      NR1     CPH1     9   -70.000000     2.092000     2
     ON6     CN7B      NR1     CPH1     9     0.000000     0.836800     3
     ON6     CN7B      NR1     CPH2     9     0.000000     1.255200     1
     ON6     CN7B      CNA      CNA     9     0.000000     0.000000     3
     ON6     CN7B      CNA     CNA2     9     0.000000     0.000000     3
     ON6     CN7B      CN7      ON5     9   180.000000    14.225600     1
     ON6      CN7     CN8B      ON2     9   180.000000    14.225600     1
     ON6      CN7     CN8B      ON5     9   180.000000    14.225600     1
     ON6      CN7     CN8B      NN1     9   180.000000    14.225600     1
     ON6      CN7      CN9      HN9     9     0.000000     0.815880     3
     ON6      CN7      CN7      NN1     9     0.000000     0.836800     3
     HN7      CN7      ON6     CN8B     9     0.000000     0.815880     3
     HN7      CN7      ON6     CN7B     9     0.000000     0.815880     3
     HN7      CN7     CN8B      ON2     9     0.000000     0.815880     3
     HN7      CN7     CN8B      ON5     9     0.000000     0.815880     3
     HN7      CN7     CN8B      HN8     9     0.000000     0.815880     3
     HN7      CN7     CN8B        S     9     0.000000     0.815880     3
     HN7      CN7     CN8B       SP     9     0.000000     0.815880     3
     HN7      CN7     CN8B      NN1     9     0.000000     0.815880     3
     HN7      CN7      CN9      HN9     9     0.000000     0.815880     3
     HN7      CN7      CN7      CN9     9     0.000000     0.815880     3
     HN7      CN7      CN7      ON2     9     0.000000     0.815880     3
     HN7      CN7      CN7      ON5     9     0.000000     0.815880     3
     HN7      CN7      CN7     CN8B     9     0.000000     0.815880     3
     HN7      CN7      CN7      CN8     9     0.000000     0.000000     3
     HN7      CN7      CN7      ON6     9   180.000000     0.815880     3
     HN7      CN7      CN7      HN7     9     0.000000     0.815880     3
     HN7      CN7      CN7     ON6B     9   180.000000     0.815880     3
     HN7      CN7      CN7     CN7B     9     0.000000     0.815880     3
     HN7      CN7      CN7      NN1     9     0.000000     0.815880     3
     HN7      CN7      CN7      CN7     9     0.000000     0.815880     3
     HN7      CN7      ON5      HN5     9     0.000000     0.000000     3
     HN7      CN7      ON5      HN7     9     0.000000     0.418400     3
     HN7      CN7      CN8     CN7B     9     0.000000     0.815880     3
     HN7      CN7      CN8      HN8     9     0.000000     0.815880     3
     HN7      CN7     ON6B     CN7B     9     0.000000     0.815880     3
     HN7      CN7     CN7B     CN7B     9     0.000000     0.815880     3
     HN7      CN7     CN7B      ON5     9     0.000000     0.815880     3
     HN7      CN7     CN7B      HN7     9     0.000000     0.815880     3
     HN7      CN7     CN7B      CNA     9     0.000000     0.167360     3
     HN7      CN7     CN7B     ON2M     9     0.000000     0.815880     3
     HN7      CN7     CN7B     ON6B     9   180.000000     2.092000     3
     HN7      CN7     CN7B      ON6     9     0.000000     0.815880     3
     HN7      CN7     CN7B      ON2     9     0.000000     0.815880     3
     HN7      CN7     CN7B      NN2     9     0.000000     0.815880     3
     HN7      CN7     CN7E      CN6     9     0.000000     0.627600     3
     HN7      CN7     CN7E     CN8B     9     0.000000     0.815880     3
     HN7      CN7      CN6      CN8     9     0.000000     0.627600     3
     HN7      CN7      CN6      HN7     9     0.000000     0.627600     3
     HN7      CN7     NN2B      CN3     9     0.000000     0.815880     3
     HN7      CN7     NN2B     CN1T     9     0.000000     0.815880     3
     HN7      CN7     NN2B      CN4     9     0.000000     0.815880     3
     HN7      CN7     NN2B      CN5     9     0.000000     0.815880     3
     HN7      CN7      NN2      CN3     9     0.000000     0.815880     3
     HN7      CN7      NN2      CN1     9     0.000000     0.815880     3
     HN7      CN7      NN2      CN4     9     0.000000     0.815880     3
     HN7      CN7      NN2      CN5     9     0.000000     0.815880     3
     HN7     CN7B     CN7B      ON2     9     0.000000     0.815880     3
     HN7     CN7B     CN7B      NN2     9     0.000000     0.000000     3
     HN7     CN7B     CN7B     NN2B     9     0.000000     0.000000     3
     HN7     CN7B     CN7B      CN7     9     0.000000     0.815880     3
     HN7     CN7B     CN7B     ON6B     9     0.000000     0.815880     3
     HN7     CN7B     CN7B      HN7     9     0.000000     0.000000     3
     HN7     CN7B     CN7B      NR1     9     0.000000     0.000000     3
     HN7     CN7B     CN7B     ON2M     9   180.000000     0.397480     3
     HN7     CN7B     CN7B      CN8     9     0.000000     0.815880     3
     HN7     CN7B      NN2      CN5     9     0.000000     0.000000     3
     HN7     CN7B      NN2      CN4     9     0.000000     0.815880     3
     HN7     CN7B      NN2      CN1     9     0.000000     0.000000     3
     HN7     CN7B      NN2      CN3     9     0.000000     0.815880     3
     HN7     CN7B      NN2     CN3B     9     0.000000     0.815880     3
     HN7     CN7B      NN2     CN3C     9     0.000000     0.815880     3
     HN7     CN7B     NN2B     CN1T     9     0.000000     0.000000     3
     HN7     CN7B     NN2B      CN3     9     0.000000     0.815880     3
     HN7     CN7B     NN2B      CN5     9     0.000000     0.000000     3
     HN7     CN7B     NN2B      CN4     9     0.000000     0.815880     3
     HN7     CN7B      CN8      CN7     9     0.000000     0.815880     3
     HN7     CN7B      CN8      HN8     9     0.000000     0.815880     3
     HN7     CN7B      ON6      CN7     9     0.000000     0.000000     3
     HN7     CN7B     ON6B      CN7     9     0.000000     0.000000     3
     HN7     CN7B     ON6B     CN8B     9   180.000000     1.255200     3
     HN7     CN7B      ON5      HN5     9     0.000000     0.000000     3
     HN7     CN7B      CN7      CN7     9     0.000000     0.815880     3
     HN7     CN7B      CN7      NN1     9     0.000000     0.815880     3
     HN7     CN7B      CN7      CN8     9     0.000000     0.815880     3
     HN7     CN7B      NR1     CPH1     9     0.000000     0.000000     3
     HN7     CN7B      NR1     CPH2     9     0.000000     0.815880     3
     HN7     CN7B      CNA      CNA     9   180.000000     0.418400     6
     HN7     CN7B      CNA     CNA2     9   180.000000     0.418400     6
     HN7     CN7B     ON2M      CN9     9     0.000000     4.184000     1
     HN7     CN7B     ON2M      CN9     9   180.000000     7.949600     2
     HN7     CN7B     ON2M      CN9     9     0.000000     1.589920     3
     HN7     CN7B    OC301   CC3152     9     0.000000     1.255200     1
     HN7     CN7B    OC301   CC3152     9   180.000000     3.347200     2
     HN7      CN6     CN8B      HN8     9     0.000000     0.627600     3
     HN7      CN6     CN8B      CN7     9     0.000000     0.627600     3
     HN7      CN6     CN7E      CN8     9     0.000000     0.627600     3
     HN7      CN6      CN8      HN8     9     0.000000     0.627600     3
     HN7     CN7E     CN7E     CN8B     9     0.000000     0.627600     3
     HN7     CN7E     CN7E      CN7     9     0.000000     0.627600     3
     HN7     CN7E     CN7E      CN8     9     0.000000     0.627600     3
     HN7     CN7E     CN7E      CN6     9     0.000000     0.627600     3
     HN7     CN7E     CN7E      HN7     9     0.000000     0.627600     3
     HN7     CN7E      CN7      HN7     9     0.000000     0.627600     3
     HN7     CN7E      CN7      ON2     9     0.000000     0.815880     3
     HN7     CN7E      CN7      ON5     9     0.000000     0.815880     3
     HN7     CN7E      CN7     NN2B     9     0.000000     0.627600     3
     HN7     CN7E      CN7      NN2     9     0.000000     0.627600     3
     HN7     CN7E      CN6      CN8     9     0.000000     0.627600     3
     HN7     CN7E      CN6      HN7     9     0.000000     0.627600     3
     HN7     CN7E      CN6      CN7     9     0.000000     0.627600     3
     HN7     CN7E      CN6     NN2B     9     0.000000     0.627600     3
     HN7     CN7E      CN6      NN2     9     0.000000     0.627600     3
     HN7     CN7E      CN8      CN6     9     0.000000     0.627600     3
     HN7     CN7E      CN8      HN8     9     0.000000     0.627600     3
     HN7     CN7E     CN8B      ON2     9     0.000000     0.815880     3
     HN7     CN7E     CN8B      HN8     9     0.000000     0.627600     3
    CN8B      CN8      CN7      HN7     9     0.000000     0.815880     3
    CN8B      CN8      CN7      ON5     9   180.000000     2.092000     1
    CN8B      CN8      CN7      ON5     9     0.000000     2.928800     2
    CN8B      CN8      CN7      ON5     9     0.000000     1.673600     3
    CN8B      CN8      CN7      ON5     9     0.000000     1.673600     5
    CN8B      CN8      CN7      ON2     9   180.000000     2.092000     1
    CN8B      CN8      CN7      ON2     9     0.000000     2.928800     2
    CN8B      CN8      CN7      ON2     9     0.000000     1.673600     3
    CN8B      CN8      CN7      ON2     9     0.000000     1.673600     5
    CN8B      CN7      ON6     CN8B     9     0.000000     2.092000     1
    CN8B      CN7      ON6     CN8B     9   180.000000     0.418400     3
    CN8B      CN7      ON6     CN8B     9     0.000000     2.092000     5
    CN8B      CN7      ON5      HN7     9     0.000000     4.184000     1
    CN8B      CN7      ON5      HN7     9     0.000000     2.092000     3
    CN8B      CN7      ON5      HN5     9     0.000000     1.255200     1
    CN8B      CN7      ON5      HN5     9   180.000000     4.184000     2
    CN8B      CN7      ON5      HN5     9     0.000000     2.092000     3
    CN8B      CN7     CN7E      HN7     9     0.000000     0.627600     3
    CN8B      CN7     CN7E     CN7E     9     0.000000     0.627600     3
    CN8B      CN7     CN7E     CN8B     9     0.000000     7.531200     3
    CN8B      CN7      ON2        P     9   180.000000     8.368000     1
    CN8B      CN7      ON2       P2     9   180.000000     8.368000     1
    CN8B      ON6      CN7      CN7     9     0.000000     2.092000     3
    CN8B        S      CT2      CT2     9   180.000000     1.004160     1
    CN8B       SP      CT2      CT2     9   180.000000     1.635944     1
    CN8B       SP      CT2      CT2     9     0.000000     1.560632     3
    CN8B       SP      CT3      HA3     9     0.000000     1.171520     3
    CN8B      CN6     CN7E      CN7     9     0.000000     0.627600     3
    CN8B      CN6     CN7E      CN8     9     0.000000     0.627600     3
    CN8B      CN6     CN7E      HN7     9     0.000000     0.627600     3
    CN8B      CN6     CN7E     CN7E     9     0.000000     1.046000     3
    CN8B      CN6      CN8     CN7E     9     0.000000     0.627600     3
    CN8B      CN6      CN8      HN8     9     0.000000     0.815880     3
    CN8B      CN6      NN2      CN5     9     0.000000     1.255200     3
    CN8B      CN6      NN2      CN4     9     0.000000     0.418400     3
    CN8B      CN6      NN2      CN3     9   180.000000     0.000000     3
    CN8B      CN6      NN2      CN1     9   180.000000     0.836800     3
    CN8B      CN6     NN2B      CN5     9     0.000000     1.255200     3
    CN8B      CN6     NN2B      CN4     9     0.000000     0.418400     3
    CN8B      CN6     NN2B      CN3     9   180.000000     0.000000     3
    CN8B      CN6     NN2B     CN1T     9     0.000000     1.255200     3
    CN8B      CN6      CN7      CN8     9   180.000000     9.204800     2
    CN8B      CN6      CN7      CN8     9   180.000000     2.301200     6
    CN8B      CN6      CN7      HN7     9     0.000000     0.815880     3
     HN8     CN8B      CN8      HN8     9     0.000000     0.815880     3
     HN8     CN8B      CN8      CN7     9     0.000000     0.815880     3
     HN8     CN8B      ON5      HN5     9     0.000000     0.000000     3
     HN8     CN8B      CN7      CN7     9     0.000000     0.815880     3
     HN8     CN8B      CN7      CN8     9     0.000000     0.815880     1
     HN8     CN8B      CN7      ON6     9     0.000000     0.815880     1
     HN8     CN8B      CN7     ON6B     9     0.000000     0.815880     1
     HN8     CN8B      CN7     CN7E     9     0.000000     0.627600     3
     HN8     CN8B      CN7      ON2     9     0.000000     0.815880     3
     HN8     CN8B      CN7      ON5     9     0.000000     0.815880     1
     HN8     CN8B      CN7     CN8B     9   180.000000     0.000000     3
     HN8     CN8B       SP      CT3     9     0.000000     1.171520     3
     HN8     CN8B      ON2      HN8     9     0.000000     0.418400     3
     HN8     CN8B      CN6     CN7E     9     0.000000     0.627600     3
     HN8     CN8B      CN6     NN2B     9     0.000000     0.627600     3
     HN8     CN8B      CN6      NN2     9     0.000000     0.627600     3
     HN8     CN8B      CN6      CN7     9     0.000000     0.815880     3
     HN8     CN8B      CN6      CN8     9     0.000000     0.815880     3
     HN8     CN8B     ON6B     CN7B     9     0.000000     0.000000     3
     HN8      CN8     CN7B      NN2     9     0.000000     0.000000     3
     HN8      CN8     CN7B     NN2B     9     0.000000     0.000000     3
     HN8      CN8     CN7B      ON6     9     0.000000     0.815880     3
     HN8      CN8     CN7B     ON6B     9     0.000000     0.815880     3
     HN8      CN8     CN7B      NR1     9     0.000000     0.000000     3
     HN8      CN8     CN7B      CNA     9     0.000000     0.000000     3
     HN8      CN8     CN7B      ON2     9     0.000000     0.815880     3
     HN8      CN8     CN7B     CN7B     9     0.000000     0.815880     3
     HN8      CN8      CN8      ON6     9     0.000000     0.815880     1
     HN8      CN8      CN7      CN7     9     0.000000     0.815880     3
     HN8      CN8      CN7      NN1     9     0.000000     0.815880     3
     HN8      CN8      NNG      CNG     9   180.000000     0.000000     6
     HN8      CN8      NNG      HN1     9     0.000000     0.794960     3
     HN8      CN8     CN7E      CN6     9     0.000000     0.627600     3
     HN8      CN8     CN7E      CN7     9     0.000000     0.627600     3
     HN8      CN8      CN6      CN7     9     0.000000     0.627600     3
     HN8      CN8      CN6     NN2B     9     0.000000     0.627600     3
     HN8      CN8      CN6      NN2     9     0.000000     0.627600     3
     ON2       P2      ON2      CN7     9   180.000000     3.765600     1
     ON2       P2      ON2      CN7     9   180.000000     1.673600     2
     ON2       P2      ON2      CN7     9   180.000000     0.836800     3
     ON2       P2      ON2      CN8     9   180.000000     5.020800     1
     ON2       P2      ON2      CN8     9   180.000000     0.418400     2
     ON2       P2      ON2      CN8     9   180.000000     0.418400     3
     ON2       P2      ON2      CN8     9     0.000000     0.000000     6
     ON2       P2      ON2     CN8B     9   180.000000     5.020800     1
     ON2       P2      ON2     CN8B     9   180.000000     0.418400     2
     ON2       P2      ON2     CN8B     9   180.000000     0.418400     3
     ON2       P2      ON2     CN8B     9     0.000000     0.000000     6
     ON2       P2      ON2      CN9     9   180.000000     5.020800     1
     ON2       P2      ON2      CN9     9   180.000000     0.418400     2
     ON2       P2      ON2      CN9     9   180.000000     0.418400     3
     ON2       P2      ON2      CN9     9     0.000000     0.000000     6
     ON2        P      ON2      CN7     9   180.000000     5.020800     1
     ON2        P      ON2      CN7     9   180.000000     0.418400     2
     ON2        P      ON2      CN7     9   180.000000     0.418400     3
     ON2        P      ON2      CN7     9     0.000000     0.000000     6
     ON2        P      ON2      CN8     9   180.000000     5.020800     1
     ON2        P      ON2      CN8     9   180.000000     0.418400     2
     ON2        P      ON2      CN8     9   180.000000     0.418400     3
     ON2        P      ON2      CN8     9     0.000000     0.000000     6
     ON2        P      ON2     CN8B     9   180.000000     5.020800     1
     ON2        P      ON2     CN8B     9   180.000000     0.418400     2
     ON2        P      ON2     CN8B     9   180.000000     0.418400     3
     ON2        P      ON2     CN8B     9     0.000000     0.000000     6
     ON2        P      ON2      CN9     9   180.000000     5.020800     1
     ON2        P      ON2      CN9     9   180.000000     0.418400     2
     ON2        P      ON2      CN9     9   180.000000     0.418400     3
     ON2        P      ON2      CN9     9     0.000000     0.000000     6
     ON2        P      ON2     CN7B     9   180.000000     5.020800     1
     ON2        P      ON2     CN7B     9   180.000000     0.418400     2
     ON2        P      ON2     CN7B     9   180.000000     0.418400     3
     ON2        P      ON2     CN7B     9     0.000000     0.000000     6
     ON2        P      NN1      CN7     9     0.000000     6.276000     2
     ON2        P      NN1     CN8B     9     0.000000     6.276000     2
     ON2     CN7B     CN7B      NN2     9     0.000000     0.000000     3
     ON2     CN7B     CN7B     ON6B     9     0.000000     6.694400     3
     ON2     CN7B     CN7B     ON6B     9   180.000000     0.000000     4
     ON2     CN7B     CN7B     ON6B     9     0.000000     0.000000     5
     ON2     CN7B     CN7B     ON6B     9     0.000000     1.673600     6
     ON2     CN7B     CN7B     NN2B     9     0.000000     0.000000     3
     ON2     CN7B      CN7      CN7     9   180.000000     8.368000     3
     ON2     CN7B      CN7      CN7     9     0.000000     1.673600     5
     ON2     CN7B      CN7      CN7     9     0.000000     3.347200     6
     ON2     CN7B      CN8      CN7     9   180.000000     8.368000     3
     ON2     CN7B      CN8      CN7     9     0.000000     1.673600     5
     ON2     CN7B      CN8      CN7     9     0.000000     3.347200     6
     ON2      CN7      CN7      CN7     9   180.000000     8.368000     3
     ON2      CN7      CN7      CN7     9     0.000000     1.673600     5
     ON2      CN7      CN7      CN7     9     0.000000     3.347200     6
     ON2      CN7      CN7      CN9     9   180.000000     3.347200     3
     ON2      CN7      CN7      CN9     9     0.000000     0.836800     4
     ON2      CN7      CN7     CN8B     9   180.000000     3.347200     3
     ON2      CN7      CN7     CN8B     9     0.000000     0.836800     4
     ON2      CN7      CN7      ON6     9     0.000000     0.836800     3
     ON2      CN7      CN7      ON6     9   180.000000     2.510400     4
     ON2      CN7      CN7      ON6     9     0.000000     1.255200     5
     ON2      CN7      CN7      ON6     9     0.000000     2.092000     6
     ON2      CN7      CN7     ON6B     9     0.000000     6.694400     3
     ON2      CN7      CN7     ON6B     9   180.000000     0.000000     4
     ON2      CN7      CN7     ON6B     9     0.000000     0.000000     5
     ON2      CN7      CN7     ON6B     9     0.000000     1.673600     6
     ON2      CN7      CN7      CN8     9     0.000000     0.836800     3
     ON2      CN7      CN7      CN8     9     0.000000     0.836800     4
     ON2      CN7      CN7      CN8     9     0.000000     2.092000     5
     ON2      CN7      CN7      CN8     9   180.000000     2.092000     6
     ON2      CN7     CN7B      ON6     9     0.000000     0.836800     3
     ON2      CN7     CN7B      ON6     9   180.000000     2.510400     4
     ON2      CN7     CN7B      ON6     9     0.000000     1.255200     5
     ON2      CN7     CN7B      ON6     9     0.000000     2.092000     6
     ON2      CN7     CN7B     CN7B     9   180.000000     6.694400     3
     ON2      CN7     CN7B     CN7B     9     0.000000     0.000000     5
     ON2      CN7     CN7B     CN7B     9     0.000000     2.510400     6
     ON2      CN7     CN7B      HN7     9     0.000000     0.815880     3
     ON2      CN7     CN7B     ON6B     9     0.000000     0.000000     3
     ON2      CN7     CN7B      NN2     9     0.000000     0.000000     3
     ON2      CN7      CN8     CN7B     9   180.000000     8.368000     3
     ON2      CN7      CN8     CN7B     9     0.000000     1.673600     5
     ON2      CN7      CN8     CN7B     9     0.000000     3.347200     6
     ON2      CN7      CN8      HN8     9     0.000000     0.815880     3
     ON2      CN7      CN8      CN7     9     0.000000     2.928800     2
     ON2      CN7      CN9      HN9     9     0.000000     0.815880     3
     ON2      CN7      CN6      HN7     9     0.000000     0.627600     3
     ON2      CN7      CN6     CN8B     9   180.000000     3.347200     3
     ON2      CN7      CN6     CN8B     9     0.000000     0.836800     4
     ON2      CN7     CN7E     CN8B     9   180.000000     3.347200     3
     ON2      CN7     CN7E     CN8B     9     0.000000     0.836800     4
     ON2     CN8B      CN7     CN8B     9   180.000000     0.000000     3
     ON3        P      ON2      CN7     9     0.000000     0.418400     3
     ON3        P      ON2     CN7B     9     0.000000     0.418400     3
     ON3        P      ON2      CN8     9     0.000000     0.418400     3
     ON3        P      ON2     CN8B     9     0.000000     0.418400     3
     ON3        P      ON2      CN9     9     0.000000     0.418400     3
     ON3        P      NN1      CN7     9   120.000000     3.347200     2
     ON3        P      NN1      CN7     9     0.000000     1.673600     3
     ON3        P      NN1      CN7     9     0.000000     2.092000     4
     ON3        P      NN1     CN8B     9   120.000000     3.347200     2
     ON3        P      NN1     CN8B     9     0.000000     1.673600     3
     ON3        P      NN1     CN8B     9     0.000000     2.092000     4
     ON3       P2      ON2      CN7     9     0.000000     0.418400     3
     ON3       P2      ON2      CN8     9     0.000000     0.418400     3
     ON3       P2      ON2     CN8B     9     0.000000     0.418400     3
     ON3       P2      ON2      CN9     9     0.000000     0.418400     3
     ON4        P      ON2      CN7     9     0.000000     3.974800     2
     ON4        P      ON2      CN7     9     0.000000     2.092000     3
     ON4        P      ON2      CN8     9     0.000000     3.974800     2
     ON4        P      ON2      CN8     9     0.000000     2.092000     3
     ON4        P      ON2     CN8B     9     0.000000     3.974800     2
     ON4        P      ON2     CN8B     9     0.000000     2.092000     3
     ON4        P      ON2      CN9     9     0.000000     3.974800     2
     ON4        P      ON2      CN9     9     0.000000     2.092000     3
     ON4        P      ON2     CN7B     9     0.000000     3.974800     2
     ON4        P      ON2     CN7B     9     0.000000     2.092000     3
     ON4       P2      ON2      CN7     9     0.000000     3.974800     2
     ON4       P2      ON2      CN7     9     0.000000     2.092000     3
     ON4       P2      ON2     CN8B     9     0.000000     3.974800     2
     ON4       P2      ON2     CN8B     9     0.000000     2.092000     3
     ON4       P2      ON2      CN9     9     0.000000     3.974800     2
     ON4       P2      ON2      CN9     9     0.000000     2.092000     3
       P      ON2      CN7      HN7     9     0.000000     0.000000     3
       P      ON2     CN7B      HN7     9     0.000000     0.000000     3
       P      ON2     CN8B      HN8     9     0.000000     0.000000     3
       P      ON2     CN8B      CN6     9   120.000000     0.836800     1
       P      ON2     CN8B     CN7E     9   120.000000     0.836800     1
       P      ON2      CN8      HN8     9     0.000000     0.000000     3
       P      ON2      CN9      HN9     9     0.000000     0.000000     3
       P      ON2       P3      ON2     9     0.000000     0.125520     2
       P      ON2       P3      ON2     9     0.000000     0.125520     3
       P      ON2       P3      ON3     9     0.000000     0.418400     2
       P      ON2       P3      ON3     9     0.000000     0.125520     3
       P      ON2        P      ON2     9     0.000000     0.125520     2
       P      ON2        P      ON2     9     0.000000     0.125520     3
       P      ON2        P      ON3     9     0.000000     0.418400     2
       P      ON2        P      ON3     9     0.000000     0.125520     3
       P      ON2       P4      ON2     9     0.000000     0.125520     2
       P      ON2       P4      ON2     9     0.000000     0.125520     3
       P      ON2       P4      ON3     9     0.000000     0.418400     2
       P      ON2       P4      ON3     9     0.000000     0.125520     3
       P      ON2       P4      ON4     9     0.000000     0.418400     2
       P      ON2       P4      ON4     9     0.000000     0.125520     3
       P      NN1      CN7      HN7     9     0.000000     0.627600     3
       P      NN1      CN7      CN7     9   180.000000     6.276000     1
       P      NN1      CN7      CN7     9   180.000000     2.719600     2
       P      NN1      CN7      CN7     9     0.000000     4.184000     3
       P      NN1      CN7     CN7B     9   220.000000     5.857600     1
       P      NN1      CN7     CN7B     9   180.000000     1.673600     5
       P      NN1      CN7      CN8     9   220.000000     5.857600     1
       P      NN1      CN7      CN8     9   180.000000     1.673600     5
       P      NN1     CN8B      HN8     9     0.000000     0.627600     3
       P      NN1     CN8B      CN7     9   120.000000     1.025080     1
      P2      ON2      CN7      HN7     9     0.000000     0.000000     3
      P2      ON2     CN8B      HN8     9     0.000000     0.000000     3
      P2      ON2     CN8B      CN6     9   120.000000     0.836800     1
      P2      ON2     CN8B     CN7E     9   120.000000     0.836800     1
      P2      ON2      CN9      HN9     9     0.000000     0.000000     3
     CN9      CN8      CN8      CN9     9     0.000000     0.627600     1
     CN9      CN8      CN8      CN8     9     0.000000     0.627600     1
     CN9      CN8      ON2        P     9   180.000000     2.510400     1
     CN9      CN8      ON2        P     9     0.000000     2.719600     2
     CN9      CN8      ON2        P     9     0.000000     0.209200     3
     CN9      CN7      CN7     CN8B     9   180.000000     2.092000     4
     CN9      CN7      ON2        P     9   180.000000     1.673600     1
     CN9      CN7      ON2        P     9     0.000000     1.255200     2
     CN9      CN7      ON2        P     9     0.000000     0.418400     3
     CN9      CN7      CN9      HN9     9     0.000000     0.815880     3
     CN9     CN3D      CN3      HN3     9   180.000000    16.736000     2
     CN9      CNA      CNA      CNA     9   180.000000    12.970400     2
     CN9      CNA     CNA2      CNA     9   180.000000    12.970400     2
     CN9     CN7B     CN7B    OG301     9   180.000000     0.000000     3
    NN2B     CN1T     NN2U      CN1     9   180.000000     6.276000     2
    NN2B     CN1T     NN2U      HN2     9   180.000000    15.899200     2
    NN2B      CN1     CN3T      CN9     9   180.000000    23.430400     2
    NN2B      CN3     CN3T      CN9     9   180.000000    23.430400     2
    NN2B      CN5     CN5G      NN4     9   180.000000    41.840000     2
    NN2B      CN5     NN2U     CN1T     9   180.000000    16.736000     2
    NN2B      CN5     NN2U      HN2     9   180.000000     0.000000     2
    NN2B     CN7B     CN7B      ON5     9     0.000000     0.000000     3
    NN2B     CN7B     CN7B     ON2M     9     0.000000     0.000000     3
    NN2B     CN7B     CN7B     ON6B     9     0.000000    12.552000     3
    NN2B     CN7B     CN7B    OG301     9     0.000000     0.000000     3
    NN2B     CN7B     CN7B    OC301     9     0.000000     0.000000     3
    NN2B      CN4      NN1      CN3     9     0.000000     2.092000     1
    NN2B      CN4      NN1      CN3     9   180.000000     2.928800     2
    NN2B      CN4      NN1      CN3     9     0.000000     1.882800     3
    NN2B      CN4      NN1      HN2     9   180.000000     1.673600     2
    NN2B      CT2       CC        O     9   180.000000     4.184000     2
    NN2B      CT2       CC        N     9   180.000000     5.439200     1
    CN1T     NN2U      CN1      CN3     9   180.000000     6.276000     2
    CN1T     NN2U      CN5     CN5G     9   180.000000     2.092000     2
    CN1T     NN2B      CN3     CN3T     9   180.000000     7.531200     2
    CN1T     NN2B      CN9      HN9     9     0.000000     0.794960     3
    CN1T     NN2B      CT2      HA2     9     0.000000     1.255200     3
    CN1T     NN2B      CT2       CC     9     0.000000     4.184000     2
    CN1T     NN2B    CG331     HGA3     9     0.000000     0.794960     3
    CN1T     NN2G      CN8      HN8     9     0.000000     0.794960     3
    CN1T     NN2G      CN8      CN8     9     0.000000     7.531200     1
    CN1T     NN2G      CN8      CN9     9     0.000000     7.531200     1
    CN1T     NN2G      CN9      HN9     9     0.000000     0.794960     3
    NN2U      CN1      CN3      CN3     9   180.000000     6.276000     2
    NN2U      CN1     CN3T      CN3     9   180.000000     7.531200     2
    NN2U     CN1T     NN2B      HN2     9   180.000000     6.694400     2
    NN2U     CN1T     NN2B      CT2     9   180.000000    46.024000     2
    NN2U     CN1T     NN2G      CN1     9   180.000000    12.552000     2
    NN2U     CN1T     NN2G      CN8     9   180.000000    46.024000     2
    NN2U     CN1T     NN2G      CN9     9   180.000000    46.024000     2
     CN1      CN3      CN3     NN2B     9   180.000000    25.104000     2
     CN1     CN3T      CN3     NN2B     9   180.000000    12.552000     2
     CN1     CN3T      CN9      HN9     9     0.000000     1.924640     3
     CN1     CN3T     CNE1     HNE1     9   180.000000     4.184000     2
     CN1      NN3      CN2      CN3     9   180.000000    25.104000     2
     CN1      NN3      CN8      CN9     9   180.000000     2.092000     3
     CN1      NN3      CN8      HN8     9     0.000000     0.627600     3
     CN1      NN3      CN8      CN8     9   180.000000     2.092000     3
     CN1      NN2      CN3      HN3     9   180.000000    19.246400     2
     CN1      NN2      CN9      HN9     9     0.000000     0.794960     3
     CN1      NN2      CT2      HA2     9     0.000000     1.255200     3
     CN1      NN2      CT2       CC     9     0.000000     4.184000     2
     CN1      NN2    CG331     HGA3     9     0.000000     0.794960     3
     CN1     NN2G      CN2     NN3G     9   180.000000     0.836800     2
     CN1     NN2G      CN8      HN8     9     0.000000     0.794960     3
     CN1     NN2G      CN8      CN8     9     0.000000     7.531200     1
     CN1     NN2G      CN8      CN9     9     0.000000     7.531200     1
     CN1     NN2G      CN9      HN9     9     0.000000     0.794960     3
     CN1     CN5G      CN5      NN2     9   180.000000    41.840000     2
     CN1     CN5G      NN4      CN4     9   180.000000     8.368000     2
     CN1     NN2B      CN9      HN9     9     0.000000     0.794960     3
     CN1     NN3G      CN2     NN3G     9   180.000000     8.368000     2
     CN3      CN3     NN2B     CN1T     9   180.000000     6.276000     2
     CN3      CN3     NN2B      HN2     9   180.000000     6.694400     2
     CN3      CN3     NN2B      CT2     9   180.000000    46.024000     2
     CN3      CN3      NN2      CN1     9   180.000000     2.510400     2
     CN3      CN3      NN2      CT2     9   180.000000    46.024000     2
     CN3     NN2B     CN1T     NN2U     9   180.000000     6.276000     2
     CN3     NN2B      CN9      HN9     9     0.000000     0.000000     3
     CN3     NN2B      CT2      HA2     9     0.000000     1.255200     3
     CN3     NN2B      CT2       CC     9     0.000000     4.184000     2
     CN3     NN2B    CG331     HGA3     9     0.000000     0.000000     3
     CN3      CN1     NN2U      HN2     9   180.000000    15.899200     2
     CN3     CN3T      CN9      HN9     9     0.000000     1.924640     3
     CN3     CN3T     CNE1     HNE1     9   180.000000     4.184000     2
     CN3      NN2      CN1      NN3     9   180.000000     2.510400     2
     CN3      NN2      CN9      HN9     9     0.000000     0.000000     3
     CN3      NN2      CT2      HA2     9     0.000000     1.255200     3
     CN3      NN2      CT2       CC     9     0.000000     4.184000     2
     CN3      NN2    CG331     HGA3     9     0.000000     0.000000     3
     CN3      NN2     CN3B     HN3B     9   180.000000    29.288000     2
     CN3      NN2     CN3C      HN3     9   180.000000    29.288000     2
     CN3      CN2      NN1      HN1     9   180.000000     4.184000     2
     CN3      CN2      NN1      CN8     9   180.000000     9.414000     2
     CN3      CN2      NN1      CN8     9     0.000000     5.439200     3
     CN3      CN2     NN2C      CN1     9   180.000000     2.092000     2
     CN3      CN2     NN2G      HN2     9   180.000000    20.083200     2
     CN3     CN3D      CN2      NN3     9   180.000000     4.184000     2
     CN3     CN3D      CN2     NN2G     9   180.000000     8.368000     2
     CN3     CN3D      CN9      HN9     9     0.000000     0.000000     3
     CN3     CN1A      CN3     HN3B     9   180.000000    29.288000     2
     CN3     CN1A      CN3      HN3     9   180.000000    29.288000     2
     CN3     CN3A      CN3     CN1A     9   180.000000    12.552000     2
     CN3     CN3A      CN3     CN3B     9   180.000000    25.104000     2
     HN3      CN3      CN3      HN3     9   180.000000    12.552000     2
     HN3      CN3      CN1      ON1     9   180.000000    25.104000     2
     HN3      CN3     CN3T     CNE1     9   180.000000    12.552000     2
     HN3      CN3     NN2B      CT2     9   180.000000     1.255200     2
     HN3      CN3      NN2      CT2     9   180.000000     1.255200     2
     HN3      CN4      NN4     CN5G     9   180.000000    23.430400     2
     HN3      CN4     NN2B      CN5     9   180.000000    23.430400     2
     HN3      CN4     NN2B      HN2     9   180.000000     0.000000     2
     HN3      CN4     NN2B      CT2     9   180.000000     1.255200     2
     HN3      CN4     NN2G      HN2     9   180.000000     6.276000     2
     HN3      CN4     NN2G      CN1     9   180.000000     6.276000     2
     HN3      CN4      NN2      CT2     9   180.000000     1.255200     2
     HN3      CNA     CNA2      CNA     9   180.000000    17.572800     2
     HN3      CNA     CNA2      FNA     9   180.000000    10.041600     2
     ON1     CN1T     NN2B      HN2     9   180.000000     0.000000     2
     ON1     CN1T     NN2B      CT2     9   180.000000    46.024000     2
     ON1     CN1T     NN2U      HN2     9   180.000000     0.000000     2
     ON1     CN1T     NN2G      CN1     9   180.000000     6.694400     2
     ON1     CN1T     NN2G      CN8     9   180.000000    46.024000     2
     ON1     CN1T     NN2G      CN9     9   180.000000    46.024000     2
     ON1      CN1     NN2U      HN2     9   180.000000     0.000000     2
     ON1      CN1     CN5G      CN5     9   180.000000    58.576000     2
     ON1      CN1     CN5G      NN4     9   180.000000     0.000000     2
     ON1      CN1     NN2G      CN2     9   180.000000    58.576000     2
     ON1      CN1     NN2G      HN2     9   180.000000     0.000000     2
     ON1      CN1     NN2G      CN8     9   180.000000     8.368000     2
     ON1      CN1     CN3T     CNE1     9   180.000000    25.104000     2
     HN2     NN2B      CN3      HN3     9   180.000000     6.276000     2
     HN2     NN2B      CN5     CN5G     9   180.000000     5.020800     2
     HN2     NN2B      CN5     NN3G     9   180.000000     5.020800     2
     HN2     NN2B      CN4      NN4     9   180.000000     5.020800     2
     HN2      NN2      CN4      HN3     9   180.000000     0.000000     2
     HN2      NN2     CN3B     HN3B     9   180.000000    12.552000     2
     HN2      NN2     CN3C      HN3     9   180.000000    16.736000     2
     HN2     NN2G      CN1     CN5G     9   180.000000    15.062400     2
     HN2     NN2G      CN2     NN3G     9   180.000000    15.062400     2
     HN2     NN2C      CN1     ON1C     9   180.000000     0.000000     2
     HN2     NN2C      CN2     NN1C     9   180.000000     0.000000     2
     HN2     NN2C      CN2      CN3     9   180.000000    13.807200     2
     HN2      NN1      CN3      CN3     9   180.000000     1.046000     2
     HN2      NN1      CN3      CN3     9     0.000000     0.209200     3
     HN2      NN1      CN7      HN7     9     0.000000     0.041840     3
     HN2      NN1      CN7      CN7     9     0.000000     1.255200     1
     HN2      NN1      CN7     CN7B     9     0.000000     1.255200     1
     HN2      NN1      CN7      CN8     9     0.000000     1.255200     1
     HN2      NN1     CN8B      HN8     9     0.000000     0.041840     3
     HN2      NN1     CN8B      CN7     9     0.000000     1.087840     1
     HN2      NN1        P      ON2     9     0.000000     0.209200     3
     HN2      NN1        P      ON3     9     0.000000     0.209200     3
     HN2      NN1        P      ON4     9     0.000000     0.209200     3
     HN2     NN2U      CN5     CN5G     9   180.000000     4.184000     2
    CN3T      CN1     NN2U      HN2     9   180.000000    20.083200     2
     NN2      CN1      NN3      CN2     9   180.000000     2.510400     2
     NN2      CN1      NN3      CN8     9   180.000000     8.368000     2
     NN2      CN1     NN2C      CN2     9   180.000000     2.092000     2
     NN2      CN1     NN2C      HN2     9   180.000000    13.807200     2
     NN2      CN1     NN2G      HN2     9   180.000000    15.899200     2
     NN2      CN3      CN3      HN3     9   180.000000    14.225600     2
     NN2      CN3     CN3D      CN2     9   180.000000    12.552000     2
     NN2      CN3     CN3D      CN9     9   180.000000    16.736000     2
     NN2      CN5      CN5      NN4     9   180.000000    58.576000     2
     NN2     CN7B     CN7B      ON5     9     0.000000     0.000000     3
     NN2     CN7B     CN7B     ON2M     9     0.000000     0.000000     3
     NN2     CN7B     CN7B     ON6B     9     0.000000    12.552000     3
     NN2     CN7B     CN7B    OG301     9     0.000000     0.000000     3
     NN2     CN7B     CN7B    OC301     9     0.000000     0.000000     3
     NN2      CT2       CC        O     9   180.000000     4.184000     2
     NN2      CT2       CC        N     9   180.000000     5.439200     1
     NN2     CN3B      CN3     HN3B     9   180.000000    29.288000     2
     NN2     CN3B      CN3     CN3A     9   180.000000    29.288000     2
     NN2     CN3C      CN3      HN3     9   180.000000    29.288000     2
     NN3      CN2      CN3      CN3     9   180.000000     2.510400     2
     NN3      CN2      CN3      HN3     9   180.000000    14.225600     2
     NN3      CN2      NN1      HN1     9   180.000000     4.184000     2
     NN3      CN2      NN1      CN8     9   180.000000     6.066800     2
     NN3      CN2     CN3D      CN9     9   180.000000     0.000000     2
     NN3      CN8      CN9      HN9     9     0.000000     0.627600     3
     NN3      CN8      CN8      HN8     9     0.000000     0.627600     3
     NN3      CN1      NN2      CT2     9   180.000000    46.024000     2
     CN2      CN3      CN3      NN2     9   180.000000    25.104000     2
     CN2      CN3      CN3      HN3     9   180.000000    19.246400     2
     CN2     NN3A      CN4     NN3A     9   180.000000     7.531200     2
     CN2     NN3A      CN4      HN3     9   180.000000    35.564000     2
     CN2      CN5      CN5      NN2     9   180.000000    29.288000     2
     CN2      CN5      NN4      CN4     9   180.000000     8.368000     2
     CN2     NN3G      CN5     CN5G     9   180.000000     0.836800     2
     CN2     NN3G      CN5     NN2B     9   180.000000     8.368000     2
     CN2     CN3D      CN9      HN9     9     0.000000     1.464400     3
     CN2     CN3D      CN3      HN3     9   180.000000    16.736000     2
     CN2     NN2G      CN8      CN9     9     0.000000     6.276000     1
     CN2     NN2G      CN8      CN9     9     0.000000     4.184000     2
     CN2     NN2G      CN8      CN9     9   180.000000     0.836800     3
     CN2     NN2G      CN8      HN8     9     0.000000     0.627600     3
     CN2     NN2G      CN8      CN8     9     0.000000     4.184000     2
     CN2     NN2G      CN8      CN8     9   180.000000     0.836800     3
     CN2      NN3      CN8      CN9     9     0.000000     8.368000     1
     CN2      NN3      CN8      CN9     9     0.000000     1.255200     3
     CN2      NN3      CN8      HN8     9     0.000000     0.627600     3
     CN2      NN3      CN8      CN8     9     0.000000     8.368000     1
     CN2      NN3      CN8      CN8     9     0.000000     1.255200     3
     CN2      NN1      CN8      HN8     9     0.000000     0.376560     3
     CN2      NN1      CN8      CN9     9   180.000000     2.217520     1
     CN2      NN1      CN8      CN9     9     0.000000     3.347200     2
     CN2      NN1      CN8      CN9     9     0.000000     0.376560     3
     CN2      NN1      CN8      CN8     9   180.000000     2.217520     1
     CN2      NN1      CN8      CN8     9     0.000000     3.347200     2
     CN2      NN1      CN8      CN8     9     0.000000     0.292880     3
     NN1      CN2      NN3      CN1     9   180.000000     8.368000     2
     NN1      CN2      CN3      CN3     9   180.000000     8.368000     2
     NN1      CN2      CN3      HN3     9   180.000000     8.368000     2
     NN1      CN2     NN2G      CN1     9   180.000000    16.736000     2
     NN1      CN2     NN2G      HN2     9   180.000000     0.000000     2
     NN1      CN2     NN3G      CN5     9   180.000000    16.736000     2
     NN1      CN2     CN3D      CN3     9   180.000000     0.000000     2
     NN1      CN2     CN3D      CN9     9   180.000000     0.000000     2
     NN1      CN8      CN9      HN9     9     0.000000     4.184000     1
     NN1      CN8      CN8      HN8     9   180.000000     4.184000     2
     NN1        P      ON2      CN7     9     0.000000     1.673600     1
     NN1        P      ON2      CN7     9    50.000000     1.673600     2
     NN1        P      ON2      CN7     9     0.000000     1.464400     3
     NN1        P      ON2     CN8B     9     0.000000     1.673600     1
     NN1        P      ON2     CN8B     9    50.000000     1.673600     2
     NN1        P      ON2     CN8B     9     0.000000     1.464400     3
     NN1      CN7     CN7B     CN7B     9   180.000000     6.276000     1
     NN1      CN7     CN7B     CN7B     9     0.000000     6.276000     2
     NN1      CN7     CN7B     CN7B     9   180.000000     4.602400     3
     NN1      CN7      CN8     CN7B     9   180.000000     5.648400     1
     NN1      CN7      CN8     CN7B     9     0.000000     4.184000     2
     NN1      CN7      CN8     CN7B     9   180.000000     0.836800     3
     NN1      CN7      CN7     CN8B     9   180.000000     2.092000     2
    ON1C      CN1      NN2      HN2     9   180.000000    12.552000     2
    ON1C      CN1      NN2      CN3     9   180.000000     6.694400     2
    ON1C      CN1      NN2      CT2     9   180.000000    46.024000     2
    ON1C      CN1      NN3      CN2     9   180.000000     6.694400     2
    ON1C      CN1     NN2C      CN2     9   180.000000     6.694400     2
    ON1C      CN1     NN2G      HN2     9   180.000000    10.460000     2
    NN3A      CN4     NN3A      CN5     9   180.000000     8.368000     2
    NN3A      CN4      NN2      CT2     9   180.000000    46.024000     2
    NN3A      CN5      CN5      CN2     9   180.000000     8.368000     2
    NN3A      CN5      CN5      NN4     9   180.000000    29.288000     2
    NN3A      CN5      NN2      CN4     9   180.000000     8.368000     2
    NN3A      CN2      NN1      HN1     9   180.000000     2.092000     2
    NN3A      CN2      CN5      NN4     9   180.000000     8.368000     2
     CN4     NN3A      CN5      CN5     9   180.000000     7.531200     2
     CN4     NN3A      CN5      NN2     9   180.000000     8.368000     2
     CN4     NN3A      CN2      NN1     9   180.000000    16.736000     2
     CN4      NN2      CN5      CN5     9   180.000000    25.104000     2
     CN4      NN2      CN9      HN9     9     0.000000     0.000000     3
     CN4      NN2      CT2      HA2     9     0.000000     0.000000     3
     CN4      NN2      CT2       CC     9     0.000000     3.347200     2
     CN4      NN2    CG331     HGA3     9     0.000000     0.000000     3
     CN4     NN2B      CN5     CN5G     9   180.000000    25.104000     2
     CN4     NN2B      CN9      HN9     9     0.000000     0.000000     3
     CN4     NN2B      CN8      HN8     9     0.000000     0.000000     3
     CN4     NN2B      CN8      CN9     9     0.000000     0.000000     3
     CN4     NN2B      CT2      HA2     9     0.000000     0.000000     3
     CN4     NN2B      CT2       CC     9     0.000000     3.347200     2
     CN4     NN2B    CG331     HGA3     9     0.000000     0.000000     3
     CN4      NN1      CN3      CN3     9   180.000000     3.765600     2
     CN4      NN1      CN3      CN3     9     0.000000     3.138000     3
     CN5      CN5      CN2     NN3A     9   180.000000     7.531200     2
     CN5      CN5      CN2      NN1     9   180.000000    16.736000     2
     CN5      CN5      NN4      CN4     9   180.000000    25.104000     2
     CN5      CN5      NN2      HN2     9   180.000000     5.020800     2
     CN5      CN5      NN2      CT2     9   180.000000    46.024000     2
     CN5      CN5     NN3I      CN4     9   180.000000    25.104000     2
     CN5      CN2     NN3A      CN4     9   180.000000    41.840000     2
     CN5      CN2      NN1      HN1     9   180.000000     2.092000     2
     CN5      NN4      CN4      NN2     9   180.000000    58.576000     2
     CN5      NN4      CN4      HN3     9   180.000000    21.756800     2
     CN5     NN3A      CN4      HN3     9   180.000000    35.564000     2
     CN5      NN2      CN4      HN3     9   180.000000    21.756800     2
     CN5      NN2      CN9      HN9     9     0.000000     0.794960     3
     CN5      NN2      CT2      HA2     9     0.000000     0.000000     3
     CN5      NN2      CT2       CC     9     0.000000     3.347200     2
     CN5      NN2    CG331     HGA3     9     0.000000     0.794960     3
     CN5     CN5G      CN1     NN2G     9   180.000000     0.836800     2
     CN5     CN5G      NN4      CN4     9   180.000000    25.104000     2
     CN5     NN2B      CN9      HN9     9     0.000000     0.794960     3
     CN5     NN2B      CN8      HN8     9     0.000000     0.794960     3
     CN5     NN2B      CN8      CN9     9     0.000000     0.794960     3
     CN5     NN2B      CT2      HA2     9     0.000000     0.000000     3
     CN5     NN2B      CT2       CC     9     0.000000     3.347200     2
     CN5     NN2B    CG331     HGA3     9     0.000000     0.794960     3
     NN4      CN4      NN2      CN5     9   180.000000    25.104000     2
     NN4      CN4      NN2      HN2     9   180.000000     5.020800     2
     NN4      CN4      NN2      CT2     9   180.000000    46.024000     2
     NN4      CN4     NN2B      CN5     9   180.000000    25.104000     2
     NN4      CN4     NN2B      CT2     9   180.000000    46.024000     2
     NN4      CN4      NN1      CN3     9     0.000000     0.962320     1
     NN4      CN4      NN1      CN3     9   180.000000     2.928800     2
     NN4      CN4      NN1      HN2     9     0.000000     1.715440     3
     NN4      CN5      CN2      NN1     9   180.000000     0.000000     2
    NN2G      CN2     NN3G      CN5     9   180.000000     8.368000     2
    NN2G      CN2      NN1      HN1     9   180.000000     5.020800     2
    NN2G      CN2     CN3D      CN9     9   180.000000     7.531200     2
    NN2G      CN1     CN5G      NN4     9   180.000000     8.368000     2
    NN2G      CN4     NN3I      CN5     9   180.000000    25.104000     2
    NN2G      CN8      CN9      HN9     9     0.000000     0.627600     3
    NN2G      CN8      CN8      NN3     9     0.000000     0.627600     3
    NN2G      CN8      CN8      HN8     9     0.000000     0.627600     3
    NN3G      CN5     CN5G      CN1     9   180.000000     8.368000     2
    NN3G      CN5     CN5G      NN4     9   180.000000    41.840000     2
    NN3G      CN5     NN2B      CN4     9   180.000000     8.368000     2
    NN3G      CN5     NN2B      CT2     9   180.000000    46.024000     2
    NN3G      CN2      NN1      HN1     9   180.000000     5.020800     2
    NN3G      CN2     NN3G      CN5     9   180.000000     8.368000     2
    NN3G      CN1     CN5G      CN5     9   180.000000    33.472000     2
    NN3G      CN1     CN5G      NN4     9   180.000000    20.920000     2
    NN3G      CN1      ON5      HN5     9   180.000000     6.276000     2
    CN5G      CN1     NN2G      CN2     9   180.000000     0.836800     2
    CN5G      CN1     NN2G      CN8     9   180.000000     8.368000     2
    CN5G      CN1     NN3G      CN2     9   180.000000     8.368000     2
    CN5G      CN1      ON5      HN5     9   180.000000     7.531200     2
    CN5G      NN4      CN4     NN2B     9   180.000000    66.944000     2
    CN5G      CN5     NN2B      CT2     9   180.000000    46.024000     2
    CN7B      CN7      CN7      CN7     9     0.000000     1.673600     6
    CN7B      CN7      CN7      CN9     9     0.000000     1.673600     6
    CN7B      CN7      CN7     CN8B     9   180.000000     0.836800     4
    CN7B      CN7      CN7     ON6B     9     0.000000     0.000000     3
    CN7B      CN7      ON2        P     9   180.000000    10.460000     1
    CN7B      CN7      ON2       P2     9   180.000000     7.949600     1
    CN7B      CN7      ON2       P2     9     0.000000     1.673600     2
    CN7B      CN7      ON2       P2     9   180.000000     0.000000     3
    CN7B      CN7      ON2       P2     9     0.000000     0.836800     4
    CN7B      CN7      ON2       P2     9     0.000000     2.510400     5
    CN7B      CN7      ON5      HN5     9     0.000000     2.092000     1
    CN7B      CN7      ON5      HN5     9     0.000000     3.347200     3
    CN7B      NN2      CN4      HN3     9   180.000000     1.255200     2
    CN7B      NN2      CN4      NN4     9   180.000000    46.024000     2
    CN7B      NN2      CN4     NN3A     9   180.000000    46.024000     2
    CN7B      NN2      CN5      CN5     9   180.000000    46.024000     2
    CN7B      NN2      CN3      HN3     9   180.000000     1.255200     2
    CN7B      NN2      CN3      CN3     9   180.000000    46.024000     2
    CN7B      NN2      CN1     ON1C     9   180.000000    46.024000     2
    CN7B      NN2      CN1      NN3     9   180.000000    46.024000     2
    CN7B     CN7B      NN2      CN5     9     0.000000     1.255200     3
    CN7B     CN7B      NN2      CN4     9   180.000000     0.000000     3
    CN7B     CN7B      NN2      CN1     9     0.000000     4.184000     3
    CN7B     CN7B      NN2      CN3     9   180.000000     0.000000     3
    CN7B     CN7B      NN2     CN3B     9     0.000000     0.000000     3
    CN7B     CN7B      NN2     CN3C     9     0.000000     0.000000     3
    CN7B     CN7B     NN2B     CN1T     9   180.000000     0.836800     3
    CN7B     CN7B     NN2B      CN3     9   180.000000     0.000000     3
    CN7B     CN7B     NN2B      CN5     9     0.000000     0.000000     3
    CN7B     CN7B     NN2B      CN4     9   180.000000     0.000000     3
    CN7B     CN7B      ON2        P     9   180.000000    10.460000     1
    CN7B     CN7B     ON6B      CN7     9     0.000000     0.000000     6
    CN7B     CN7B     ON6B     CN8B     9   180.000000     3.347200     3
    CN7B     CN7B      CN7      CN7     9     0.000000     0.000000     6
    CN7B     CN7B      NR1     CPH1     9     0.000000     0.836800     4
    CN7B     CN7B      NR1     CPH2     9   180.000000     0.000000     1
    CN7B     CN7B      NR1     CPH2     9     0.000000     1.255200     2
    CN7B     CN7B      NR1     CPH2     9   180.000000     0.418400     3
    CN7B     CN7B     ON2M      CN9     9   180.000000     8.368000     2
    CN7B     CN7B      CN8      CN7     9     0.000000     0.000000     6
    CN7B     CN7B    OC301   CC3152     9   180.000000     1.255200     1
    CN7B     CN7B    OC301   CC3152     9   180.000000     3.347200     2
    CN7B     NN2B      CN3      HN3     9   180.000000     1.255200     2
    CN7B     NN2B      CN3     CN3T     9   180.000000    46.024000     2
    CN7B     NN2B     CN1T      ON1     9   180.000000    46.024000     2
    CN7B     NN2B     CN1T     NN2U     9   180.000000    46.024000     2
    CN7B     NN2B      CN4      HN3     9   180.000000     1.255200     2
    CN7B     NN2B      CN4      NN4     9   180.000000    46.024000     2
    CN7B     NN2B      CN5     CN5G     9   180.000000    46.024000     2
    CN7B     NN2B      CN5     NN3G     9   180.000000    46.024000     2
    CN7B      ON6      CN7     CN8B     9     0.000000     3.347200     3
    CN7B      ON6      CN7      CN9     9     0.000000     0.000000     3
    CN7B      ON6      CN7      CN8     9     0.000000     0.000000     3
    CN7B     ON6B      CN7     CN8B     9     0.000000     8.368000     3
    CN7B     ON6B      CN7      CN9     9     0.000000     8.368000     3
    CN7B     ON6B      CN7      CN8     9     0.000000     8.368000     3
    CN7B      CN8      CN7      CN7     9     0.000000     1.673600     6
    CN7B      NR1     CPH1      HR3     9   180.000000     0.000000     2
    CN7B      NR1     CPH1     CPH1     9     0.000000     0.000000     1
    CN7B      NR1     CPH2      HR1     9   180.000000     0.000000     2
    CN7B      NR1     CPH2      NR2     9   180.000000     0.000000     2
    CN7B      CNA     CNA2      CNA     9   180.000000    12.970400     2
    CN7B      CNA      CNA      CNA     9   180.000000    12.970400     2
    CN7B     ON2M      CN9      HN9     9     0.000000     5.020800     2
    CN7B     ON2M      CN9      HN9     9   180.000000     0.418400     3
     ON5      CN7      CN7      CN7     9   180.000000     8.368000     3
     ON5      CN7      CN7      CN7     9     0.000000     1.673600     5
     ON5      CN7      CN7      CN7     9     0.000000     3.347200     6
     ON5      CN7      CN7      ON5     9     0.000000     0.000000     3
     ON5      CN7      CN7      ON2     9     0.000000     0.000000     3
     ON5      CN7      CN7     CN8B     9   180.000000     3.347200     3
     ON5      CN7      CN7     CN8B     9     0.000000     0.836800     4
     ON5      CN7      CN7      ON6     9     0.000000     0.836800     3
     ON5      CN7      CN7      ON6     9   180.000000     2.510400     4
     ON5      CN7      CN7      ON6     9     0.000000     1.255200     5
     ON5      CN7      CN7      ON6     9     0.000000     2.092000     6
     ON5      CN7      CN7     ON6B     9     0.000000     6.694400     3
     ON5      CN7      CN7     ON6B     9   180.000000     0.000000     4
     ON5      CN7      CN7     ON6B     9     0.000000     0.000000     5
     ON5      CN7      CN7     ON6B     9     0.000000     1.673600     6
     ON5      CN7      CN7      CN8     9     0.000000     0.836800     3
     ON5      CN7      CN7      CN8     9     0.000000     0.836800     4
     ON5      CN7      CN7      CN8     9     0.000000     2.092000     5
     ON5      CN7      CN7      CN8     9   180.000000     2.092000     6
     ON5      CN7      CN8     CN7B     9   180.000000     8.368000     3
     ON5      CN7      CN8     CN7B     9     0.000000     1.673600     5
     ON5      CN7      CN8     CN7B     9     0.000000     3.347200     6
     ON5      CN7      CN8      HN8     9   180.000000     0.815880     3
     ON5      CN7      CN8      CN7     9     0.000000     2.928800     2
     ON5      CN7     CN7B     CN7B     9   180.000000     6.694400     3
     ON5      CN7     CN7B     CN7B     9     0.000000     0.000000     5
     ON5      CN7     CN7B     CN7B     9     0.000000     2.510400     6
     ON5      CN7     CN7B      HN7     9   180.000000     0.815880     3
     ON5      CN7     CN7B      ON2     9     0.000000     0.000000     3
     ON5      CN7     CN7B     ON6B     9     0.000000     0.000000     3
     ON5      CN7     CN7B      NN2     9     0.000000     0.000000     3
     ON5      CN7     CN8B      NN1     9   180.000000    14.225600     1
     ON5      CN7     CN7E     CN8B     9   180.000000     3.347200     3
     ON5      CN7     CN7E     CN8B     9     0.000000     0.836800     4
     ON5      CN7      CN6     CN8B     9   180.000000     3.347200     3
     ON5      CN7      CN6     CN8B     9     0.000000     0.836800     4
     ON5     CN7B     CN7B      HN7     9     0.000000     0.000000     3
     ON5     CN7B      CN7      ON2     9     0.000000     0.000000     3
     ON5     CN7B      CN7      ON5     9     0.000000     0.000000     3
     ON5      CN1     NN3G      CN2     9   180.000000     4.184000     2
     ON5     CN8B      CN7     CN8B     9   180.000000     0.000000     3
    ON6B     CN7B      NN2      CN5     9   180.000000     4.602400     1
    ON6B     CN7B      NN2      CN4     9     0.000000     4.602400     1
    ON6B     CN7B      NN2      CN1     9     0.000000     0.000000     3
    ON6B     CN7B      NN2      CN3     9     0.000000     4.184000     1
    ON6B     CN7B      NN2     CN3B     9     0.000000     0.000000     3
    ON6B     CN7B      NN2     CN3C     9     0.000000     0.000000     3
    ON6B     CN7B     NN2B      CN1     9     0.000000     0.000000     3
    ON6B     CN7B     NN2B     CN1T     9   180.000000     3.347200     1
    ON6B     CN7B     NN2B     CN1T     9     0.000000     2.928800     3
    ON6B     CN7B     NN2B      CN3     9     0.000000     3.765600     1
    ON6B     CN7B     NN2B      CN5     9   180.000000     4.602400     1
    ON6B     CN7B     NN2B      CN5     9     0.000000     0.836800     3
    ON6B     CN7B     NN2B      CN4     9     0.000000     5.857600     1
    ON6B     CN7B     CN7B      ON5     9     0.000000     0.000000     3
    ON6B     CN7B     CN7B     ON2M     9     0.000000     0.000000     3
    ON6B     CN7B     CN7B     ON6B     9   180.000000     8.368000     1
    ON6B     CN7B     CN7B     ON6B     9   180.000000     3.765600     6
    ON6B     CN7B      NR1     CPH1     9   180.000000     2.510400     1
    ON6B     CN7B      NR1     CPH1     9   -70.000000     2.092000     2
    ON6B     CN7B      NR1     CPH1     9     0.000000     0.836800     3
    ON6B     CN7B      NR1     CPH2     9     0.000000     1.255200     1
    ON6B      CN7     CN8B      ON2     9   180.000000    14.225600     1
    ON6B      CN7     CN8B      ON5     9   180.000000    14.225600     1
    ON6B      CN7     CN8B        S     9   180.000000    14.225600     1
    ON6B      CN7     CN8B       SP     9   180.000000    14.225600     1
    ON6B      CN7     CN8B      NN1     9   180.000000    14.225600     1
    ON6B      CN7      CN7      NN1     9     0.000000     0.836800     3
    ON6B     CN8B      CN7     ON6B     9     0.000000     0.836800     3
    ON6B     CN8B      CN7     CN8B     9     0.000000     0.836800     3
    ON6B     CN8B      CN7      CN7     9     0.000000     0.836800     3
     CN8     CN7B      NN2      CN5     9     0.000000     1.255200     3
     CN8     CN7B      NN2      CN4     9   180.000000     0.000000     3
     CN8     CN7B      NN2      CN1     9     0.000000     4.184000     3
     CN8     CN7B      NN2      CN3     9   180.000000     0.000000     3
     CN8     CN7B      NN2     CN3B     9     0.000000     0.000000     3
     CN8     CN7B     NN2B     CN1T     9   180.000000     0.836800     3
     CN8     CN7B     NN2B      CN3     9   180.000000     0.000000     3
     CN8     CN7B     NN2B      CN5     9     0.000000     0.000000     3
     CN8     CN7B     NN2B      CN4     9   180.000000     0.000000     3
     CN8     CN7B      ON6      CN7     9   180.000000     2.510400     6
     CN8     CN7B      NR1     CPH1     9     0.000000     0.836800     4
     CN8     CN7B      NR1     CPH2     9   180.000000     0.000000     1
     CN8     CN7B      NR1     CPH2     9     0.000000     1.255200     2
     CN8     CN7B      NR1     CPH2     9   180.000000     0.418400     3
     CN8     CN7B      CNA      CNA     9   180.000000     0.962320     2
     CN8     CN7B      CNA     CNA2     9   180.000000     0.962320     2
     CN8     CN7B     CN7B      NN2     9     0.000000     0.000000     3
     CN8     CN7B     CN7B     NN2B     9     0.000000     0.000000     3
     CN8     CN7B     CN7B     ON6B     9     0.000000     1.673600     6
     CN8     CN7B      ON2        P     9   180.000000    10.460000     1
     CN8      CN7     CN8B      ON2     9   180.000000     0.836800     3
     CN8      CN7     CN8B      ON5     9   180.000000     0.836800     3
     CN8      CN7      CN7      CN9     9   180.000000     2.092000     4
     CN8      CN7      CN7     CN8B     9   180.000000     2.092000     4
     CN8      CN7      CN7      ON6     9     0.000000     4.184000     4
     CN8      CN7      CN7      ON6     9   180.000000     1.255200     5
     CN8      CN7      CN7      ON6     9   180.000000     1.255200     6
     CN8      CN7      CN7      CN8     9     0.000000     0.000000     3
     CN8      CN7      ON2        P     9   180.000000    10.460000     1
     CN8      CN7      ON2       P2     9   180.000000     7.949600     1
     CN8      CN7      ON5      HN5     9     0.000000     1.255200     1
     CN8      CN7      ON5      HN5     9   180.000000     4.184000     2
     CN8      CN7      ON5      HN5     9     0.000000     2.092000     3
     CN8      CN7     CN7B      ON6     9     0.000000     2.510400     6
     CN8      CN7     CN7B      NN2     9     0.000000     0.000000     3
     CN8      CN7      CN6      HN7     9     0.000000     0.627600     3
     CN8      CN7     CN7E      HN7     9     0.000000     0.627600     3
     CN8      CN7      NN2      CN4     9   180.000000     2.092000     1
     CN8      CN7      NN2      CN5     9   180.000000     4.602400     1
     CN8      CN7      NN2      CN3     9   180.000000     0.000000     3
     CN8      CN7      NN2      CN1     9   180.000000     0.000000     3
     CN8      CN7     NN2B      CN4     9   180.000000     2.092000     1
     CN8      CN7     NN2B      CN5     9   180.000000     4.602400     1
     CN8      CN7     NN2B      CN3     9   180.000000     0.000000     3
     CN8      CN7     NN2B     CN1T     9   180.000000     0.000000     3
     CN8      CN8     CN7B      NR1     9     0.000000     0.000000     3
     CN8      CN8      NNG      CNG     9     0.000000     0.418400     3
     CN8      CN8      NNG      HN1     9   180.000000     0.000000     6
     CN8      ON6     CN7B      NR1     9     0.000000     0.000000     3
     CN8      NN3      CN1     ON1C     9   180.000000     8.368000     2
     CN8      NN3      CN2      NN1     9   180.000000     8.368000     2
     CN8      NN3      CN2      CN3     9   180.000000     8.368000     2
     CN8      NNG      CNG      NNG     9   180.000000     9.414000     2
     CN8     CN7E      CN6      CN7     9     0.000000     0.627600     3
     CN8     CN7E      CN6     NN2B     9     0.000000     0.627600     3
     CN8     CN7E      CN6      NN2     9     0.000000     0.627600     3
     CN8     CN7E     CN7E     CN8B     9     0.000000     0.627600     3
     CN8     CN7E     CN7E      CN7     9     0.000000    16.736000     3
     CN8     CN7E      CN7      CN8     9     0.000000    16.736000     3
     CN8     CN7E      CN7     NN2B     9     0.000000     0.627600     3
     CN8     CN7E      CN7      NN2     9     0.000000     0.627600     3
     CN8     CN7E      CN7      HN7     9     0.000000     0.627600     3
     CN8      CN6     CN8B      CN7     9     0.000000    16.736000     3
     CN8      CN6     CN8B      ON2     9   180.000000     0.627600     1
     CN8      CN6      CN7      CN8     9     0.000000    16.736000     3
     CN8      CN6      CN7      ON2     9     0.000000     1.882800     2
     CN8      CN6      CN7      ON5     9     0.000000     1.882800     2
     CN8      CN6      NN2      CN5     9     0.000000     1.255200     3
     CN8      CN6      NN2      CN4     9     0.000000     0.418400     3
     CN8      CN6      NN2      CN3     9   180.000000     0.000000     3
     CN8      CN6      NN2      CN1     9     0.000000     1.255200     3
     CN8      CN6     NN2B      CN5     9     0.000000     1.255200     3
     CN8      CN6     NN2B      CN4     9     0.000000     0.418400     3
     CN8      CN6     NN2B      CN3     9   180.000000     0.000000     3
     CN8      CN6     NN2B     CN1T     9     0.000000     1.255200     3
     CN8     CN8B      CN8      HN8     9     0.000000     0.815880     1
     CN8     CN8B      CN8      CN7     9     0.000000     2.092000     3
     CN8     CN8B      CN8      CN7     9   180.000000     2.092000     6
     CN8      CN3     CN1A      ON1     9   180.000000     4.184000     2
     CN8      CN3     CN1A      ON1     9     0.000000     4.184000     3
     CN8      CN3     CN1A      ON1     9     0.000000     1.673600     6
     CN8      CN3     CN1A      NN1     9   180.000000     2.092000     2
     CN8      CN3     CN1A      NN1     9   180.000000     1.464400     3
     CN8      CN3     CN1A      NN1     9     0.000000     1.673600     6
     CN8      CN3     CN3C      NN2     9   180.000000     0.418400     2
     HN9      CN9      CN7     ON6B     9   180.000000     0.815880     3
     HN9      CN9      CNA      CNA     9   180.000000     0.418400     6
     HN9      CN9      CNA     CNA2     9   180.000000     0.418400     6
     HN5      ON5     CN7B     CN7B     9     0.000000     3.347200     1
     HN5      ON5     CN7B     CN7B     9     0.000000     1.673600     2
     HN5      ON5     CN7B     CN7B     9     0.000000     1.673600     3
     HN5      ON5     CN7B     CN7B     9   180.000000     0.000000     6
     HN5      ON5     CN7B      CN7     9     0.000000     8.368000     1
     HN5      ON5     CN7B      CN7     9   180.000000     0.000000     2
     HN5      ON5     CN7B      CN7     9     0.000000     0.836800     3
     HN5      ON5     CN8B      CN6     9   120.000000     0.836800     1
     HN5      ON5     CN8B     CN7E     9   120.000000     0.836800     1
      P3      ON2        P      ON2     9     0.000000     0.125520     2
      P3      ON2        P      ON2     9     0.000000     0.125520     3
      P3      ON2        P      ON3     9     0.000000     0.418400     2
      P3      ON2        P      ON3     9     0.000000     0.125520     3
      P3      ON2        P      ON4     9     0.000000     0.418400     2
      P3      ON2        P      ON4     9     0.000000     0.125520     3
      P3      ON2       P3      ON2     9     0.000000     0.125520     2
      P3      ON2       P3      ON2     9     0.000000     0.125520     3
      P3      ON2       P3      ON3     9     0.000000     0.418400     2
      P3      ON2       P3      ON3     9     0.000000     0.125520     3
      P4      ON2        P      ON2     9     0.000000     0.125520     2
      P4      ON2        P      ON2     9     0.000000     0.125520     3
      P4      ON2        P      ON3     9     0.000000     0.418400     2
      P4      ON2        P      ON3     9     0.000000     0.125520     3
      P4      ON2        P      ON4     9     0.000000     0.418400     2
      P4      ON2        P      ON4     9     0.000000     0.125520     3
     OCL      CCL     CTL1     NH3L     9   180.000000    13.388800     2
     OBL       CL     CTL2     HAL2     9   180.000000     0.000000     6
     OBL       CL     CTL3     HAL3     9   180.000000     0.000000     6
     OBL       CL      OSL     CTL1     9   180.000000     4.037560     1
     OBL       CL      OSL     CTL1     9   180.000000    16.108400     2
     OBL       CL      OSL     CTL2     9   180.000000     4.037560     1
     OBL       CL      OSL     CTL2     9   180.000000    16.108400     2
     OBL       CL      OSL     CTL3     9   180.000000     4.037560     1
     OBL       CL      OSL     CTL3     9   180.000000    16.108400     2
     OBL       CL      NHL     CTL2     9   180.000000    10.460000     2
     OSL       CL     CTL2     HAL2     9   180.000000     0.000000     6
     OSL       CL     CTL3     HAL3     9   180.000000     0.000000     6
     OSL       CL      NHL     CTL2     9   180.000000    10.460000     2
     OSL       PL      OSL     CTL1     9   180.000000     5.020800     1
     OSL       PL      OSL     CTL1     9   180.000000     0.418400     2
     OSL       PL      OSL     CTL1     9   180.000000     0.418400     3
     OSL       PL      OSL     CTL2     9   180.000000     5.020800     1
     OSL       PL      OSL     CTL2     9   180.000000     0.418400     2
     OSL       PL      OSL     CTL2     9   180.000000     0.418400     3
     OSL     CTL2     CTL1      OSL     9   180.000000     2.941352     1
     OSL     CTL2     CTL1      OSL     9    60.000000    -0.481160     2
     OSL     CTL2     CTL1      OSL     9     0.000000     2.568976     3
     OSL     CTL2     CTL1      OSL     9    60.000000    -1.794936     4
     OSL        C      CT1      NH3     9   180.000000     0.209200     6
     OSL        C      CT1      CT2     9   180.000000     0.209200     6
     OSL        C      CT1      HB1     9     0.000000     0.000000     1
     OSL    CC321   CC3163     HCA1     9     0.000000     0.836800     3
     OSL    CC321   CC3163   OC3C61     9   180.000000     6.236670     1
     OSL    CC321   CC3163   OC3C61     9     0.000000     1.572766     2
     OSL    CC321   CC3163   OC3C61     9     0.000000     2.475254     3
     OSL    CC321   CC3163   CC3161     9   180.000000     2.092000     1
     OSL    CC321   CC3163   CC3161     9   180.000000     1.548080     2
     OSL    CC321   CC3163   CC3161     9     0.000000     0.627600     3
     OSL       SL     CTL2     HAL2     9     0.000000     0.794960     3
     OSL       SL     CTL2     CTL2     9     0.000000     0.962320     3
     OSL     CTO1     CEL3     CEL3     9   180.000000     5.355520     1
     OSL     CTO1     CEL3     CEL3     9   180.000000     2.343040     2
     OSL     CTO1     CEL3     CEL3     9     0.000000     3.598240     3
     OSL     CTO1     CEL3     HEL1     9   180.000000     0.502080     3
    OSLP       CL     CTL2     HAL2     9   180.000000     0.000000     6
    OSLP       CL     CTL3     HAL3     9   180.000000     0.000000     6
    OSLP       PL     OSLP     CTL1     9   180.000000     5.020800     1
    OSLP       PL     OSLP     CTL1     9   180.000000     0.418400     2
    OSLP       PL     OSLP     CTL1     9   180.000000     0.418400     3
    OSLP       PL     OSLP     CTL2     9   180.000000     5.020800     1
    OSLP       PL     OSLP     CTL2     9   180.000000     0.418400     2
    OSLP       PL     OSLP     CTL2     9   180.000000     0.418400     3
    OSLP       PL     OSLP     CTL3     9   180.000000     5.020800     1
    OSLP       PL     OSLP     CTL3     9   180.000000     0.418400     2
    OSLP       PL     OSLP     CTL3     9   180.000000     0.418400     3
    OSLP     CTL2     CTL1      OSL     9   180.000000     8.434944     1
    OSLP     CTL2     CTL1      OSL     9    60.000000     1.062736     2
    OSLP     CTL2     CTL1      OSL     9   180.000000     2.539688     3
    OSLP     CTL2     CTL1      OSL     9     0.000000     0.000000     4
    OSLP     CTL2     CTL2      OSL     9   180.000000     8.434944     1
    OSLP     CTL2     CTL2      OSL     9    60.000000     1.062736     2
    OSLP     CTL2     CTL2      OSL     9   180.000000     2.539688     3
    OSLP     CTL2     CTL2      OSL     9     0.000000     0.000000     4
    HAL2     CTL2       CL      OHL     9   180.000000     0.000000     6
    HAL2     CTL2     CEL1     CRL1     9     0.000000     0.125520     3
    HAL2     CTL2     CEL1     CTL1     9     0.000000     0.125520     3
    HAL2     CTL2   CG3RC1   CG3C31     9     0.000000     0.815880     3
    HAL2     CTL2   CG3RC1   CG3RC1     9     0.000000     0.627600     3
    HAL2     CTL2   CG3RC1     HGA1     9     0.000000     0.627600     3
    HAL2     CTL2      OSL        C     9     0.000000     0.000000     3
    HAL2     CTL2     CTL2    OC301     9     0.000000     0.794960     3
    HAL2     CTL2    OC301   CC3051     9     0.000000     1.188256     3
    HAL2     CTL2    OC301   CC3152     9     0.000000     1.188256     3
    HAL2     CTL2   CC311C     HCA1     9     0.000000     0.836800     3
    HAL2     CTL2   CC311C   CC321C     9     0.000000     0.836800     3
    HAL2     CTL2    CC301   CC311C     9     0.000000     0.836800     3
    HAL2     CTL2    CC301   CG2R61     9     0.000000     0.167360     3
    HAL2     CTL2        S       HS     9     0.000000     0.836800     3
    HAL2     CTL2      ON2        P     9     0.000000     1.188256     3
    HAL2     CRL2     CEL1     CRL1     9     0.000000     0.125520     3
    HAL2     CRL2     CEL1     CTL1     9     0.000000     0.125520     3
    HAL3     CTL3       CL      OHL     9   180.000000     0.000000     6
    HAL3     CTL3      OSL       SL     9     0.000000     0.000000     3
    HAL3     CTL3   CG3RC1   CG3RC1     9   180.000000     0.627600     3
    HAL3     CTL3   CG3RC1     HGA1     9     0.000000     0.669440     3
    HAL3     CTL3   CG3RC1   CG3C31     9   180.000000     0.627600     3
    HAL3     CTL3     CTO1     HAL1     9     0.000000     0.836800     3
    HAL3     CTL3     CTO1      OHL     9     0.000000     0.836800     3
    HAL3     CTL3      NHL        H     9     0.000000     0.000000     3
    HAL3     CTL3      NHL        C     9     0.000000     0.000000     3
    HAL3     CTL3     CEL3     CTL2     9     0.000000     6.694400     3
      PL     OSLP     CTL2     CTL1     9   180.000000     1.008344     1
      PL     OSLP     CTL2     CTL1     9     0.000000     1.702888     2
      PL     OSLP     CTL2     CTL2     9   180.000000     1.008344     1
      PL     OSLP     CTL2     CTL2     9     0.000000     1.702888     2
     O2L       PL     OSLP     CTL2     9     0.000000     0.418400     3
     O2L       PL     OSLP     CTL1     9     0.000000     0.418400     3
     O2L       PL     OSLP     CTL3     9     0.000000     0.418400     3
     O2L       PL      OSL     CTL2     9     0.000000     0.418400     3
     O2L       PL      OSL     CTL1     9     0.000000     0.418400     3
     O2L       PL      OSL     CTL3     9     0.000000     0.418400     3
     OHL       PL      OSL     CTL1     9     0.000000     3.974800     2
     OHL       PL      OSL     CTL1     9     0.000000     2.092000     3
     OHL       PL      OSL     CTL2     9     0.000000     3.974800     2
     OHL       PL      OSL     CTL2     9     0.000000     2.092000     3
     OHL       PL      OSL     CTL3     9     0.000000     3.974800     2
     OHL       PL      OSL     CTL3     9     0.000000     2.092000     3
     OHL       PL     OSLP     CTL2     9     0.000000     3.974800     2
     OHL       PL     OSLP     CTL2     9     0.000000     2.092000     3
     OHL       PL     OSLP     CTL3     9     0.000000     3.974800     2
     OHL       PL     OSLP     CTL3     9     0.000000     2.092000     3
     OHL     CTL1     CEL3     CEL3     9   180.000000     2.510400     1
     OHL     CTL1     CEL3     HEL1     9   180.000000     0.502080     3
     OHL     CTO1     CEL3     HEL1     9   180.000000     0.502080     3
    CTL1     CTL2       CL      OSL     9   180.000000    -0.627600     1
    CTL1     CTL2       CL      OSL     9   180.000000     2.217520     2
    CTL1     CTL2     CEL1     CRL1     9   180.000000     1.255200     3
    CTL1     CTL2     CEL1     CTL1     9   180.000000     1.255200     3
    CTL1     CTL2       SL      OSL     9     0.000000     0.962320     3
    CTL1     CTL2      ON2        P     9   180.000000     0.083680     3
    CTL1     CRL2     CEL1     CRL1     9   180.000000     1.255200     3
    CTL1     CRL2     CEL1     CTL1     9   180.000000     1.255200     3
    CTL1     CEL3     CEL3     CTL2     9   180.000000     1.882800     1
    CTL1     CEL3     CEL3     CTL2     9   180.000000    35.564000     2
    CTL1     CEL3     CEL3     HEL1     9     0.000000     4.184000     2
    CTL1     CTL1     CEL3     CEL3     9   180.000000     2.510400     1
    CTL1     CTL1     CEL3     HEL1     9     0.000000     0.502080     3
    CTL1     CTL1      NHL        C     9     0.000000     0.000000     1
    CTL1     CTL1     CTL2     OSLP     9     0.000000     0.000000     1
    CTL1     CTO1     CEL3     HEL1     9     0.000000     0.502080     3
    CTL1     CTO1      OHL      HOL     9   180.000000    20.920000     1
    CTL1     CTO1      OHL      HOL     9     0.000000     0.920480     2
    CTL1     CTO1      OHL      HOL     9   180.000000     4.644240     3
    CTL1      NHL        C     CTL2     9     0.000000     0.000000     1
    CTL1      NHL        C     CTL3     9     0.000000     0.000000     1
    CTL1      NHL        C     CTL1     9     0.000000     6.694400     1
    CTL1      NHL        C     CTL1     9   180.000000    10.460000     2
    CTL2     CTL2       CL      OSL     9     0.000000     1.389088     1
    CTL2     CTL2       CL      OSL     9   180.000000     1.807488     2
    CTL2     CTL2       CL      OSL     9   180.000000     0.125520     3
    CTL2     CTL2       CL      OSL     9     0.000000     0.000000     6
    CTL2     CTL2     CTL2       CL     9     0.000000     3.150552     1
    CTL2     CTL2     CTL2       CL     9     0.000000     2.330488     2
    CTL2     CTL2     CTL2       CL     9   180.000000     1.326328     3
    CTL2     CTL2     CTL2       CL     9   180.000000     0.000000     5
    CTL2     CTL2     CTL2      OSL     9     0.000000     0.000000     3
    CTL2     CTL2     CTL2     CTL3     9     0.000000     0.677808     2
    CTL2     CTL2     CTL2     CTL3     9   180.000000     0.196648     3
    CTL2     CTL2     CTL2     CTL3     9     0.000000     0.439320     4
    CTL2     CTL2     CTL2     CTL3     9     0.000000     0.740568     5
    CTL2     CTL2     CTL2     CTL2     9     0.000000     0.422584     2
    CTL2     CTL2     CTL2     CTL2     9   180.000000     0.594128     3
    CTL2     CTL2     CTL2     CTL2     9     0.000000     0.309616     4
    CTL2     CTL2     CTL2     CTL2     9     0.000000     0.405848     5
    CTL2     CTL2     CTL2    OC301     9     0.000000     0.794960     3
    CTL2     CTL2   CG3RC1     HGA1     9     0.000000     0.627600     3
    CTL2     CTL2   CG3RC1   CG3C31     9   180.000000     0.000000     2
    CTL2     CTL2      OSL        C     9   180.000000     2.928800     1
    CTL2     CTL2   CC311C     HCA1     9     0.000000     0.836800     3
    CTL2     CTL2   CC311C   CC321C     9     0.000000     0.836800     3
    CTL2     CTL2    CC301   CC311C     9     0.000000     0.836800     3
    CTL2     CTL2    CC301   CG2R61     9     0.000000     0.167360     3
    CTL2     CTL2        S       HS     9     0.000000     1.004160     1
    CTL2     CTL2        S       HS     9     0.000000     0.627600     2
    CTL2     CTL2        S       HS     9     0.000000     1.129680     3
    CTL2     CTL2        C      NHL     9     0.000000     8.326160     1
    CTL2     CTL2        C      NHL     9   180.000000     2.677760     2
    CTL2     CTL2        C      NHL     9   180.000000     1.171520     3
    CTL2     CTL1     CTL2      OSL     9     0.000000     0.000000     3
    CTL2     CTL1      OHL      HOL     9     0.000000     3.765600     1
    CTL2     CTL1      OHL      HOL     9     0.000000     1.255200     3
    CTL2     CTL1     CTO1      OHL     9     0.000000     0.836800     3
    CTL2     CTL1     CTO1      OSL     9   180.000000     1.631760     1
    CTL2     CTL1     CTO1      OSL     9   180.000000     2.133840     2
    CTL2     CTL1     CTO1      OSL     9   180.000000     3.640080     3
    CTL2     CTL1     CTO1     HAL1     9     0.000000     0.836800     3
    CTL2     CTL1      NHL        C     9     0.000000     0.000000     1
    CTL2      OSL       SL      O2L     9     0.000000     0.000000     3
    CTL2     CEL1     CEL2     HEL2     9   180.000000    21.756800     2
    CTL2     CEL1     CRL1     CRL1     9   180.000000     0.000000     3
    CTL2     CEL1     CRL1     CTL1     9   180.000000     0.000000     3
    CTL2     CEL1     CRL1     CTL3     9   180.000000     0.000000     3
    CTL2     CEL1     CRL1     CRL2     9   180.000000     1.255200     3
    CTL2     CEL1     CRL1     CTL2     9   180.000000     1.255200     3
    CTL2     CEL1     CTL1     CRL1     9   180.000000     0.000000     3
    CTL2     CEL1     CTL1     CRL2     9   180.000000     1.255200     3
    CTL2     CEL1     CTL1     CTL1     9   180.000000     0.000000     3
    CTL2     CEL1     CTL1     CTL3     9   180.000000     0.000000     3
    CTL2     CEL1     CTL1     CTL2     9   180.000000     1.255200     3
    CTL2   CG3RC1   CG3RC1   CG3C31     9     0.000000     0.627600     3
    CTL2   CG3RC1   CG3RC1     HGA1     9     0.000000     0.627600     3
    CTL2   CG3RC1   CG3RC1     CTL2     9     0.000000     0.627600     3
    CTL2    OC301     CTL1     HAL1     9     0.000000     1.188256     3
    CTL2    OC301   CC311D   OC3C61     9   180.000000     1.506240     1
    CTL2    OC301   CC311D   OC3C61     9     0.000000     2.175680     2
    CTL2    OC301   CC311D   OC3C61     9   180.000000     3.472720     3
    CTL2    OC301   CC311D   CC321C     9   180.000000     2.426720     1
    CTL2    OC301   CC311D   CC321C     9   180.000000     2.886960     2
    CTL2    OC301   CC311D   CC321C     9     0.000000     4.853440     3
    CTL2    OC301   CC3162     HCA1     9     0.000000     1.188256     3
    CTL2    OC301   CC3161   CC3161     9     0.000000     0.920480     1
    CTL2    OC301   CC3161   CC3161     9   180.000000     1.171520     2
    CTL2    OC301   CC3161   CC3161     9     0.000000     3.723760     3
    CTL2   CC311C   CC321C     HCA2     9     0.000000     0.836800     3
    CTL2   CC311C   CC321C   CC321C     9     0.000000     0.836800     3
    CTL2        C      NHL    CC322     9     0.000000     6.694400     1
    CTL2        C      NHL    CC322     9   180.000000    10.460000     2
    CTL2        C      NHL     CTL2     9     0.000000     6.694400     1
    CTL2        C      NHL     CTL2     9   180.000000    10.460000     2
    CTL2        C      NHL     CTL3     9     0.000000     6.694400     1
    CTL2    CC301   CC311C   CC321C     9     0.000000     0.836800     3
    CTL2    CC301   CC311C     HCA1     9     0.000000     0.836800     3
    CTL2    CC301     CTL2     HAL2     9     0.000000     0.794960     3
    CTL2    CC301     CTL2     CTL2     9     0.000000     0.794960     3
    CTL2    CC301   CG2R61   CG2R61     9   180.000000     0.962320     2
    CTL2      ON2        P    OG2P1     9     0.000000     1.380720     3
    CTL2      ON2        P    OG304     9     0.000000     6.066800     2
    CTL2      ON2        P      ON2     9     0.000000     3.974800     2
    CTL2      ON2        P      ON2     9     0.000000     2.092000     3
    CTL2      ON2        P      ON3     9     0.000000     3.974800     2
    CTL2      ON2        P      ON3     9     0.000000     2.092000     3
    CTL2      ON2        P      ON4     9     0.000000     3.974800     2
    CTL2      ON2        P      ON4     9     0.000000     2.092000     3
    CTL2     CEL3     CEL3     CTL3     9   180.000000     1.882800     1
    CTL2     CEL3     CEL3     CTL3     9   180.000000    35.564000     2
    CTL2     CEL3     CEL3     CTL2     9   180.000000     1.882800     1
    CTL2     CEL3     CEL3     CTL2     9   180.000000    35.564000     2
    CTL3     CTL2       CL      OSL     9     0.000000     1.389088     1
    CTL3     CTL2       CL      OSL     9   180.000000     1.807488     2
    CTL3     CTL2       CL      OSL     9   180.000000     0.125520     3
    CTL3     CTL2       CL      OSL     9     0.000000     0.000000     6
    CTL3     CTL2     CTL2       CL     9     0.000000     3.150552     1
    CTL3     CTL2     CTL2       CL     9     0.000000     2.330488     2
    CTL3     CTL2     CTL2       CL     9   180.000000     1.326328     3
    CTL3     CTL2     CTL2       CL     9   180.000000     0.000000     5
    CTL3     CTL2     CTL2      OSL     9     0.000000     0.000000     3
    CTL3     CTL2     CTL2     CTL3     9     0.000000     0.251040     2
    CTL3     CTL2     CTL2     CTL3     9     0.000000     0.146440     5
    CTL3     CTL2        C      NHL     9     0.000000     8.326160     1
    CTL3     CTL2        C      NHL     9   180.000000     2.677760     2
    CTL3     CTL2        C      NHL     9   180.000000     1.171520     3
    CTL3     CTL1     CTL2      OSL     9     0.000000     0.000000     3
    CTL3     CTL1     CEL3     CEL3     9   180.000000     3.765600     1
    CTL3     CTL1      NHL        C     9     0.000000     0.000000     1
    CTL3      OSL       SL      O2L     9     0.000000     0.000000     3
    CTL3     CEL1     CEL1     HEL1     9   180.000000     4.184000     2
    CTL3     CEL1     CEL2     HEL2     9   180.000000    21.756800     2
    CTL3        C      NHL     CTL3     9     0.000000     6.694400     1
    CTL3     CEL3     CTL2     HAL2     9     0.000000     7.949600     3
    CTL3     CEL3     CTL2     CTL2     9     0.000000     7.949600     3
      CL      OSL     CTL1     CTL2     9   180.000000     3.502008     1
      CL      OSL     CTL1     CTL2     9   180.000000     6.079352     2
      CL      OSL     CTL1     CTL2     9   180.000000     0.627600     3
      CL      OSL     CTL1     CTL2     9     0.000000     0.000000     4
      CL      OSL     CTL1     CTL3     9   180.000000     3.502008     1
      CL      OSL     CTL1     CTL3     9   180.000000     6.079352     2
      CL      OSL     CTL1     CTL3     9   180.000000     0.627600     3
      CL      OSL     CTL1     CTL3     9     0.000000     0.000000     4
      CL      OSL     CTL2     CTL1     9   180.000000     3.267704     1
      CL      OSL     CTL2     CTL1     9     0.000000     0.723832     2
      CL      OSL     CTL2     CTL1     9   180.000000     1.117128     3
      CL      OSL     CRL1     CRL2     9   180.000000     2.928800     1
      CL      OSL    CC321   CC3163     9   180.000000     3.267704     1
      CL      OSL    CC321   CC3163     9     0.000000     0.723832     2
      CL      OSL    CC321   CC3163     9   180.000000     1.117128     3
      CL      OSL    CC321     HCA2     9     0.000000     0.836800     3
      CL      OSL     CTO1     CTL1     9   180.000000     3.502008     1
      CL      OSL     CTO1     CTL1     9   180.000000     6.079352     2
      CL      OSL     CTO1     CTL1     9   180.000000     0.627600     3
      CL      OSL     CTO1     CTL1     9     0.000000     0.000000     4
      CL      NHL     CTL2     HAL2     9     0.000000     0.000000     1
      CL      NHL     CTL2     CTL2     9     0.000000     7.531200     1
      CL        S      CT2      CT1     9   180.000000     1.004160     1
      CL        S      CT2      CT1     9     0.000000     1.548080     3
    NH3L     CTL2     CTL2      OHL     9   180.000000     2.928800     1
    NH3L     CTL2     CTL2     OSLP     9   180.000000     2.928800     1
     NTL     CTL2     CTL2      OHL     9   180.000000    17.991200     1
     NTL     CTL2     CTL2      OHL     9   180.000000    -1.673600     3
     NTL     CTL2     CTL2     OSLP     9   180.000000    13.807200     1
     NTL     CTL2     CTL2     OSLP     9   180.000000    -1.673600     3
     NTL     CTL2       CC       OC     9   180.000000     0.209200     6
    HEL1     CEL1     CEL1     HEL1     9   180.000000     4.184000     2
    HEL1     CEL1     CEL2     HEL2     9   180.000000    21.756800     2
    HEL1     CEL1     CTL2     CTL2     9     0.000000     0.502080     3
    HEL1     CEL1     CTL2     CTL3     9     0.000000     0.502080     3
    HEL1     CEL1     CTL2     HAL2     9     0.000000     0.000000     3
    HEL1     CEL1     CTL2     CRL1     9     0.000000     0.000000     3
    HEL1     CEL1     CTL2     CRL2     9     0.000000     0.502080     3
    HEL1     CEL1     CTL2     HGA2     9     0.000000     0.000000     3
    HEL1     CEL1     CTL2     CTL1     9     0.000000     0.000000     3
    HEL1     CEL1     CTL3     HAL3     9     0.000000     0.000000     3
    HEL1     CEL1     CRL2     CRL1     9     0.000000     0.000000     3
    HEL1     CEL1     CRL2     CTL1     9     0.000000     0.000000     3
    HEL1     CEL1     CRL2     CTL2     9     0.000000     0.502080     3
    HEL1     CEL1     CRL2     CTL3     9     0.000000     0.502080     3
    HEL1     CEL1     CRL2     HGA2     9     0.000000     0.000000     3
    HEL1     CEL1     CRL2     HAL2     9     0.000000     0.000000     3
    HEL1     CEL1     CRL2     CRL2     9     0.000000     0.502080     3
    HEL1     CEL3     CTL1     CTL3     9     0.000000     0.502080     3
    HEL1     CEL3     CTL1     HAL1     9     0.000000     0.000000     3
    HEL1     CEL3     CTO1     CTL3     9     0.000000     0.502080     3
    HEL1     CEL3     CTO1     HAL1     9     0.000000     0.000000     3
    HEL1     CEL3     CTL2     CTL2     9     0.000000     0.502080     3
    HEL1     CEL3     CTL2     CTL3     9     0.000000     0.502080     3
    HEL1     CEL3     CTL2     HAL2     9     0.000000     0.000000     3
    HEL1     CEL3     CEL3     CTL2     9   180.000000     0.627600     1
    HEL1     CEL3     CEL3     CTL2     9   180.000000    35.564000     2
    HEL1     CEL3     CEL3     HEL1     9   180.000000     4.184000     2
    HEL1     CEL3     CEL3     CTL3     9     0.000000     4.184000     2
    CEL1     CEL1     CTL2     HAL2     9   180.000000     1.255200     3
    CEL1     CEL1     CTL2     CTL3     9   180.000000     3.807440     1
    CEL1     CEL1     CTL2     CTL3     9   180.000000     0.753120     2
    CEL1     CEL1     CTL2     CTL3     9   180.000000     0.711280     3
    CEL1     CEL1     CTL2     CTL2     9   180.000000     3.807440     1
    CEL1     CEL1     CTL2     CTL2     9   180.000000     0.753120     2
    CEL1     CEL1     CTL2     CTL2     9   180.000000     0.711280     3
    CEL1     CEL1     CTL2     CEL1     9   180.000000     3.556400     1
    CEL1     CEL1     CTL2     CEL1     9   180.000000     1.255200     2
    CEL1     CEL1     CTL2     CEL1     9     0.000000     1.087840     3
    CEL1     CEL1     CTL2     CEL1     9     0.000000     0.401664     4
    CEL1     CEL1     CTL2     HGA2     9   180.000000     1.255200     3
    CEL1     CEL1     CTL2     CRL1     9   180.000000     2.092000     1
    CEL1     CEL1     CTL2     CRL1     9   180.000000     5.439200     3
    CEL1     CEL1     CTL2     CRL2     9   180.000000     3.807440     1
    CEL1     CEL1     CTL2     CRL2     9   180.000000     0.753120     2
    CEL1     CEL1     CTL2     CRL2     9   180.000000     0.711280     3
    CEL1     CEL1     CTL2     CTL1     9   180.000000     2.092000     1
    CEL1     CEL1     CTL2     CTL1     9   180.000000     5.439200     3
    CEL1     CEL1     CTL3     HAL3     9   180.000000     1.255200     3
    CEL1     CEL1     CRL2     HGA2     9   180.000000     1.255200     3
    CEL1     CEL1     CRL2     HAL2     9   180.000000     1.255200     3
    CEL1     CEL1     CRL2     CRL1     9   180.000000     2.092000     1
    CEL1     CEL1     CRL2     CRL1     9   180.000000     5.439200     3
    CEL1     CEL1     CRL2     CTL1     9   180.000000     2.092000     1
    CEL1     CEL1     CRL2     CTL1     9   180.000000     5.439200     3
    CEL1     CEL1     CRL2     CTL3     9   180.000000     3.765600     1
    CEL1     CEL1     CRL2     CTL3     9   180.000000     0.836800     2
    CEL1     CEL1     CRL2     CEL1     9   180.000000     4.184000     1
    CEL1     CEL1     CRL2     CEL1     9     0.000000     0.418400     2
    CEL1     CEL1     CRL2     CEL1     9   180.000000     1.255200     3
    CEL1     CEL1     CRL2     CEL1     9     0.000000     0.836800     4
    CEL1     CEL1     CRL2     CRL2     9   180.000000     3.807440     1
    CEL1     CEL1     CRL2     CRL2     9   180.000000     0.753120     2
    CEL1     CEL1     CRL2     CRL2     9   180.000000     0.711280     3
    CEL1     CEL1     CRL2     CTL2     9   180.000000     3.807440     1
    CEL1     CEL1     CRL2     CTL2     9   180.000000     0.753120     2
    CEL1     CEL1     CRL2     CTL2     9   180.000000     0.711280     3
    CEL1     CEL1     CRL1     CRL2     9   180.000000     2.092000     1
    CEL1     CEL1     CRL1     CRL2     9   180.000000     5.439200     3
    CEL1     CEL1     CRL1     CTL2     9   180.000000     2.092000     1
    CEL1     CEL1     CRL1     CTL2     9   180.000000     5.439200     3
    CEL1     CEL1     CRL1     CTL3     9   180.000000     2.092000     1
    CEL1     CEL1     CRL1     CTL3     9   180.000000     5.439200     3
    CEL1     CEL1     CRL1     CRL1     9   180.000000     2.092000     1
    CEL1     CEL1     CRL1     CRL1     9   180.000000     5.439200     3
    CEL1     CEL1     CRL1     CTL1     9   180.000000     2.092000     1
    CEL1     CEL1     CRL1     CTL1     9   180.000000     5.439200     3
    CEL1     CEL1     CRL1     HGA1     9   180.000000     1.255200     3
    CEL1     CEL1     CTL1     CRL2     9   180.000000     2.092000     1
    CEL1     CEL1     CTL1     CRL2     9   180.000000     5.439200     3
    CEL1     CEL1     CTL1     CRL1     9   180.000000     2.092000     1
    CEL1     CEL1     CTL1     CRL1     9   180.000000     5.439200     3
    CEL1     CEL1     CTL1     HAL1     9   180.000000     1.255200     3
    CEL1     CEL1     CTL1     CTL1     9   180.000000     2.092000     1
    CEL1     CEL1     CTL1     CTL1     9   180.000000     5.439200     3
    CEL1     CEL1     CTL1     CTL2     9   180.000000     2.092000     1
    CEL1     CEL1     CTL1     CTL2     9   180.000000     5.439200     3
    CEL1     CEL1     CTL1     CTL3     9   180.000000     2.092000     1
    CEL1     CEL1     CTL1     CTL3     9   180.000000     5.439200     3
    CEL1     CTL2     CTL2       CL     9   180.000000     0.585760     1
    CEL1     CTL2     CTL2       CL     9     0.000000     0.711280     2
    CEL1     CTL2     CTL2       CL     9   180.000000     0.209200     3
    CEL1     CTL2     CTL2     CTL2     9   180.000000     0.585760     1
    CEL1     CTL2     CTL2     CTL2     9     0.000000     0.711280     2
    CEL1     CTL2     CTL2     CTL2     9   180.000000     0.209200     3
    CEL1     CTL2     CTL2     CTL3     9   180.000000     0.585760     1
    CEL1     CTL2     CTL2     CTL3     9     0.000000     0.711280     2
    CEL1     CTL2     CTL2     CTL3     9   180.000000     0.209200     3
    CEL1     CTL2     CTL2     CRL2     9   180.000000     0.585760     1
    CEL1     CTL2     CTL2     CRL2     9     0.000000     0.711280     2
    CEL1     CTL2     CTL2     CRL2     9   180.000000     0.209200     3
    CEL1     CTL2     CEL1     HEL1     9     0.000000     0.000000     2
    CEL1     CTL2     CEL1     HEL1     9     0.000000     0.000000     3
    CEL1     CTL2     CRL2     CTL3     9   180.000000     0.585760     1
    CEL1     CTL2     CRL2     CTL3     9     0.000000     0.711280     2
    CEL1     CTL2     CRL2     CTL3     9   180.000000     0.209200     3
    CEL1     CTL2     CRL2     CTL2     9   180.000000     0.585760     1
    CEL1     CTL2     CRL2     CTL2     9     0.000000     0.711280     2
    CEL1     CTL2     CRL2     CTL2     9   180.000000     0.209200     3
    CEL1     CTL2     CRL2     CRL2     9   180.000000     0.585760     1
    CEL1     CTL2     CRL2     CRL2     9     0.000000     0.711280     2
    CEL1     CTL2     CRL2     CRL2     9   180.000000     0.209200     3
    CEL1     CRL2     CRL2     CTL3     9   180.000000     0.585760     1
    CEL1     CRL2     CRL2     CTL3     9     0.000000     0.711280     2
    CEL1     CRL2     CRL2     CTL3     9   180.000000     0.209200     3
    CEL1     CRL2     CRL2     CRL2     9   180.000000     0.585760     1
    CEL1     CRL2     CRL2     CRL2     9     0.000000     0.711280     2
    CEL1     CRL2     CRL2     CRL2     9   180.000000     0.209200     3
    CEL1     CRL2     CRL2     CTL2     9   180.000000     0.585760     1
    CEL1     CRL2     CRL2     CTL2     9     0.000000     0.711280     2
    CEL1     CRL2     CRL2     CTL2     9   180.000000     0.209200     3
    CEL1     CRL2     CTL2     CTL3     9   180.000000     0.585760     1
    CEL1     CRL2     CTL2     CTL3     9     0.000000     0.711280     2
    CEL1     CRL2     CTL2     CTL3     9   180.000000     0.209200     3
    CEL1     CRL2     CTL2     CTL2     9   180.000000     0.585760     1
    CEL1     CRL2     CTL2     CTL2     9     0.000000     0.711280     2
    CEL1     CRL2     CTL2     CTL2     9   180.000000     0.209200     3
    CEL1     CRL2     CTL2     CRL2     9   180.000000     0.585760     1
    CEL1     CRL2     CTL2     CRL2     9     0.000000     0.711280     2
    CEL1     CRL2     CTL2     CRL2     9   180.000000     0.209200     3
    CEL1     CRL2     CEL1     HEL1     9     0.000000     0.000000     2
    CEL1     CRL2     CEL1     HEL1     9     0.000000     0.000000     3
    CEL2     CEL1     CTL2     CTL2     9   180.000000     2.092000     1
    CEL2     CEL1     CTL2     CTL2     9   180.000000     5.439200     3
    CEL2     CEL1     CTL2     CTL3     9   180.000000     2.092000     1
    CEL2     CEL1     CTL2     CTL3     9   180.000000     5.439200     3
    CEL2     CEL1     CTL2     HAL2     9     0.000000     0.502080     3
    CEL2     CEL1     CTL2     CEL1     9   180.000000     5.020800     1
    CEL2     CEL1     CTL2     CEL1     9   180.000000     1.673600     2
    CEL2     CEL1     CTL2     CEL1     9   180.000000     5.439200     3
    CEL2     CEL1     CTL2     CRL2     9   180.000000     2.092000     1
    CEL2     CEL1     CTL2     CRL2     9   180.000000     5.439200     3
    CEL2     CEL1     CTL2     HGA2     9     0.000000     0.502080     3
    CEL2     CEL1     CTL3     HAL3     9   180.000000     0.209200     3
    CEL2     CEL1     CRL2     CRL2     9   180.000000     2.092000     1
    CEL2     CEL1     CRL2     CRL2     9   180.000000     5.439200     3
    CEL2     CEL1     CRL2     CTL2     9   180.000000     2.092000     1
    CEL2     CEL1     CRL2     CTL2     9   180.000000     5.439200     3
    CEL2     CEL1     CRL2     CTL3     9   180.000000     2.092000     1
    CEL2     CEL1     CRL2     CTL3     9   180.000000     5.439200     3
    CEL2     CEL1     CRL2     HGA2     9     0.000000     0.502080     3
    CEL2     CEL1     CRL2     HAL2     9     0.000000     0.502080     3
    CEL2     CEL1     CRL2     CEL1     9   180.000000     5.020800     1
    CEL2     CEL1     CRL2     CEL1     9   180.000000     1.673600     2
    CEL2     CEL1     CRL2     CEL1     9   180.000000     5.439200     3
   CC31A    CC30A    CC32A    HCA2A     9     0.000000     0.836800     3
   CC31A    CC30A    CC33A    HCA3A     9     0.000000     0.836800     3
   CC31A    CC31A    CC31A    HCA1A     9     0.000000     0.836800     3
   CC31A    CC31A    CC32A    HCA2A     9     0.000000     0.836800     3
   CC31A    CC31A    CC33A    HCA3A     9     0.000000     0.836800     3
   CC31A    CC32A    CC32A    HCA2A     9     0.000000     0.794960     3
   CC31A    CC32A    CC33A    HCA3A     9     0.000000     0.669440     3
   CC32A    CC30A    CC32A    HCA2A     9     0.000000     0.836800     3
   CC32A    CC30A    CC32A    HCA3A     9     0.000000     0.836800     3
   CC32A    CC31A    CC31A    HCA1A     9     0.000000     0.836800     3
   CC32A    CC31A    CC32A    HCA2A     9     0.000000     0.836800     3
   CC32A    CC31A    CC33A    HCA3A     9     0.000000     0.836800     3
   CC32A    CC32A    CC32A    HCA2A     9     0.000000     0.794960     3
   CC32A    CC32A    CC32A    CC32A     9     0.000000     0.269868     2
   CC32A    CC32A    CC32A    CC32A     9   180.000000     0.626554     3
   CC32A    CC32A    CC32A    CC32A     9     0.000000     0.395723     4
   CC32A    CC32A    CC32A    CC32A     9     0.000000     0.470742     5
   CC32A    CC32A    CC33A    HCA3A     9     0.000000     0.669440     3
   CC32A    CC32A    OC30A    CC33A     9     0.000000     2.384880     1
   CC32A    CC32A    OC30A    CC33A     9     0.000000     1.213360     2
   CC32A    CC32A    OC30A    CC33A     9     0.000000     1.799120     3
   CC32A    CC32A    OC30A    CC32A     9     0.000000     2.384880     1
   CC32A    CC32A    OC30A    CC32A     9     0.000000     1.213360     2
   CC32A    CC32A    OC30A    CC32A     9     0.000000     1.799120     3
   CC33A    CC30A    CC32A    HCA2A     9     0.000000     0.836800     3
   CC33A    CC30A    CC32A    HCA3A     9     0.000000     0.836800     3
   CC33A    CC31A    CC31A    HCA1A     9     0.000000     0.836800     3
   CC33A    CC31A    CC32A    HCA2A     9     0.000000     0.836800     3
   CC33A    CC31A    CC33A    HCA3A     9     0.000000     0.836800     3
   CC33A    CC32A    CC32A    HCA2A     9     0.000000     0.794960     3
   CC33A    CC32A    CC32A    CC33A     9     0.000000     0.159787     2
   CC33A    CC32A    CC32A    CC33A     9   180.000000     0.133009     6
   CC33A    CC32A    CC32A    CC32A     9     0.000000     0.629734     2
   CC33A    CC32A    CC32A    CC32A     9   180.000000     0.340285     3
   CC33A    CC32A    CC32A    CC32A     9     0.000000     0.452876     4
   CC33A    CC32A    CC32A    CC32A     9     0.000000     0.853159     5
   CC33A    CC32A    CC33A    HCA3A     9     0.000000     0.669440     3
   CC33A    CC32A    OC30A    CC32A     9     0.000000     1.673600     1
   CC33A    CC32A    OC30A    CC32A     9     0.000000     2.050160     3
   CC33A    CC32A    OC30A    CC33A     9     0.000000     1.673600     1
   CC33A    CC32A    OC30A    CC33A     9     0.000000     2.050160     3
   CC33A   CC325A   CC325A    CC33A     9     0.000000     0.669440     3
   CC33A   CC325A   CC325A   CC325A     9     0.000000     0.669440     3
   CC33A   CC325A   CC325A   HCA25A     9     0.000000     0.669440     3
   CC33A   CC325B   CC325B    CC33A     9     0.000000     0.794960     3
   CC33A   CC325B   CC325B   CC325B     9     0.000000     0.794960     3
   CC33A   CC325B   CC325B   HCA25A     9     0.000000     0.794960     3
   CC33A   CC325B   OC305A   CC325B     9     0.000000     1.255200     3
   CC33A   CC326A   CC326A    CC33A     9     0.000000     0.794960     3
   CC33A   CC326A   CC326A   CC326A     9     0.000000     0.794960     3
   CC33A   CC326A   CC326A    HCA2A     9     0.000000     0.794960     3
   HCA1A    CC31A    CC31A    HCA1A     9     0.000000     0.836800     3
   HCA1A    CC31A    CC32A    HCA2A     9     0.000000     0.836800     3
   HCA1A    CC31A    CC32A    CC31A     9     0.000000     0.836800     3
   HCA1A    CC31A    CC32A    CC32A     9     0.000000     0.836800     3
   HCA1A    CC31A    CC32A    CC33A     9     0.000000     0.836800     3
   HCA1A    CC31A    CC33A    HCA3A     9     0.000000     0.836800     3
   HCA2A    CC32A    CC32A    HCA2A     9     0.000000     0.794960     3
   HCA2A    CC32A    CC32A    OC30A     9     0.000000     0.794960     3
   HCA2A    CC32A    CC33A    HCA3A     9     0.000000     0.669440     3
   HCA2A    CC32A    OC30A    CC32A     9     0.000000     1.188256     3
   HCA2A    CC32A    OC30A    CC33A     9     0.000000     1.188256     3
   HCA2A   CC326A   CC326A    HCA2A     9     0.000000     0.794960     3
   HCA2A   CC326A   CC326A   CC326A     9     0.000000     0.794960     3
   HCA2A   CC326A    CC33A    HCA3A     9     0.000000     0.669440     3
   CC30A    CC32A    CC32A    HCA2A     9     0.000000     0.794960     3
   CC30A    CC32A    CC33A    HCA3A     9     0.000000     0.669440     3
  HCA25A   CC325A   CC325A   HCA25A     9     0.000000     0.669440     3
  HCA25A   CC325B   CC325B   HCA25A     9     0.000000     0.794960     3
  HCA25A   CC325B    CC33A    HCA3A     9     0.000000     0.669440     3
  HCA25A   CC325B   OC305A   CC325B     9     0.000000     1.255200     3
  CC325A   CC325A   CC325A   HCA25A     9     0.000000     0.669440     3
  CC325A   CC325A   CC325A   CC325A     9   180.000000     1.715440     3
  CC325B   CC325B   CC325B   HCA25A     9     0.000000     0.794960     3
  CC325B   CC325B   CC325B   CC325B     9   180.000000     1.715440     3
  CC325B   CC325B    CC33A    HCA3A     9     0.000000     0.669440     3
  CC325B   CC325B   OC305A   CC325B     9     0.000000     2.092000     3
  OC305A   CC325B   CC325B   HCA25A     9     0.000000     0.794960     3
  OC305A   CC325B   CC325B   CC325B     9     0.000000     0.000000     3
  OC305A   CC325B    CC33A    HCA3A     9     0.000000     0.669440     3
   OC30A   CC326A   CC326A    HCA2A     9     0.000000     0.794960     3
   OC30A   CC326A   CC326A   CC326A     9     0.000000    -0.804374     1
   OC30A   CC326A   CC326A   CC326A     9     0.000000    -4.184000     2
   OC30A   CC326A   CC326A   CC326A     9     0.000000     2.487681     3
   OC30A   CC326A   CC326A   CC326A     9     0.000000    -0.328946     4
   OC30A   CC326A    CC33A    HCA3A     9     0.000000     0.669440     3
   OC30A    CC32A    CC33A    HCA3A     9     0.000000     0.669440     3
   OC30A    CC32A    CC32A    OC30A     9   180.000000     2.468560     1
   OC30A    CC32A    CC32A    OC30A     9     0.000000     4.853440     2
   OC30A    CC32A    CC32A    CC33A     9   180.000000     0.669440     1
   OC30A    CC32A    CC32A    CC33A     9     0.000000     1.631760     2
   OC30A    CC32A    CC32A    CC32A     9   180.000000     0.669440     1
   OC30A    CC32A    CC32A    CC32A     9     0.000000     1.631760     2
  CC326A   CC326A    CC33A    HCA3A     9     0.000000     0.669440     3
  CC326A   CC326A   CC326A   CC326A     9     0.000000     2.084845     2
  CC326A   CC326A   CC326A   CC326A     9     0.000000    -2.503873     3
  CC326A   CC326A   CC326A   CC326A     9     0.000000     1.746653     4
  CC326A   CC326A   CC326A   CC326A     9     0.000000    -1.038845     5
  CC326A    OC30A   CC326A   CC326A     9     0.000000    -2.205052     1
  CC326A    OC30A   CC326A   CC326A     9     0.000000     2.857546     2
  CC326A    OC30A   CC326A   CC326A     9     0.000000    -0.877678     3
  CC326A    OC30A   CC326A   CC326A     9     0.000000     0.629148     4
  CC326A    OC30A   CC326A    HCA2A     9     0.000000     1.188256     3
   HCA3A    CC33A    CC33A    HCA3A     9     0.000000     0.638060     3
   HCA3A    CC33A    OC30A    CC32A     9     0.000000     1.188256     3
   HCA3A    CC33A    OC30A    CC33A     9     0.000000     1.188256     3
    OSIE       SI     OSIE     SIH3     9     0.000000     0.753120     5
    OSIE       SI     OSIE       SI     9     0.000000     0.753120     5
    OSIE       SI     OSIA       SI     9     0.000000     0.753120     5
    OSIE       SI     OSIH     HSIO     9     0.000000     1.255200     3
    OSIE     SIH3     OSIE       SI     9     0.000000     0.753120     5
    OSIE       AL      OAL      HAL     9     0.000000     0.418400     3
    OSIA       SI     OSIA       SI     9     0.000000     0.753120     5
    OSIA       SI     OSIH     HSIO     9     0.000000     1.464400     3
    OSIH       SI     OSIE     SIH3     9     0.000000     0.502080     5
    OSIH       SI     OSIH     HSIO     9     0.000000     1.464400     3
      SI     OSIE       SI     OSIA     9     0.000000     0.502080     5
      SI     OSIE       SI     HSIA     9     0.000000     0.836800     3
      SI     OSIE       SI     OSIH     9     0.000000     0.753120     5
      SI     OSIE       SI      OAL     9     0.000000     0.418400     3
      SI     OSIE       AL     OSIE     9     0.000000     1.255200     3
      SI     OSIE       AL      OAL     9     0.000000     1.255200     3
      SI     OSIE       AL      HAL     9     0.000000     0.418400     3
      SI     OSIA       SI     OSIH     9     0.000000     0.502080     5
      SI      OAL       AL      OAL     9     0.000000     0.418400     3
      SI      OAL       AL      HAL     9     0.000000     1.255200     3
    HSIA     SIH3     OSIE       SI     9     0.000000     0.836800     3
    HSIA     SIH3     OSIE     SIH3     9     0.000000     0.836800     3
    SIH3     OSIE     SIH3     OSIE     9     0.000000     0.753120     5
    SIH3     OSIE       SI     OSIA     9     0.000000     0.753120     5
     OAL       AL      OAL      HAL     9     0.000000     0.418400     3
      AL      OAL       SI     OSIE     9     0.000000     0.418400     3
      AL      OAL       AL      OAL     9     0.000000     0.418400     3
      AL      OAL       AL      HAL     9     0.000000     1.255200     3
      AL      OAL       AL     OSIE     9     0.000000     0.418400     3
      AL     OSIE       SI     OSIE     9     0.000000     0.418400     3
      AL     OSIE       AL     OSIE     9     0.000000     0.418400     3
      AL     OSIE       AL      OAL     9     0.000000     0.418400     3
      AL     OSIE       AL      HAL     9     0.000000     1.255200     3
     HAL      OAL       AL      HAL     9     0.000000     1.255200     3
      HA       CA       CA       CA     9   180.000000    14.644000     2
      HA       CA       CA      CPT     9   180.000000    14.644000     2
      HA       CA       CA       HA     9   180.000000    10.460000     2
      HA       CA      CPT      CPT     9   180.000000    12.552000     2
      HA       CA      CPT       CY     9   180.000000    16.736000     2
      HA       CA       CY      CPT     9   180.000000     5.020800     2
      HA       CA       CY      CT2     9   180.000000     5.020800     2
      HA       CA       NY      CPT     9   180.000000    12.552000     2
      HA       CA       NY        H     9   180.000000     4.184000     2
      HA       CC      NH2        H     9   180.000000     5.857600     2
      HA      CP3        N        C     9   180.000000     0.000000     3
      HA      CP3        N      CP1     9     0.000000     0.418400     3
      HA      CP3       NP      CP1     9     0.000000     0.334720     3
      HA      CT1      CT2       CA     9     0.000000     0.167360     3
      HA      CT1    OC301   CC3162     9     0.000000     1.188256     3
      HA      CT2     CPH1     CPH1     9     0.000000     0.000000     3
      HA      CT2       CY       CA     9   180.000000     1.046000     2
      HA      CT2       CY      CPT     9   180.000000     1.046000     2
      HA      CT2      NH1        C     9     0.000000     0.000000     3
      HA      CT2      NH1        H     9     0.000000     0.000000     3
      HA      CT2        S      CT3     9     0.000000     1.171520     3
      HA      CT2    OC301   CC3162     9     0.000000     1.188256     3
      HA      CT3     CPH1     CPH1     9     0.000000     0.000000     3
      HA      CT3       CS       HA     9     0.000000     0.669440     3
      HA      CT3      CT2       CA     9     0.000000     0.167360     3
      HA      CT3      NH1        C     9     0.000000     0.000000     3
      HA      CT3      NH1        H     9     0.000000     0.000000     3
      HA      CT3        S      CT2     9     0.000000     1.171520     3
      HA       CY       CA      CPT     9   180.000000     5.020800     2
      HA       CY       CA       HA     9   180.000000     5.020800     2
      HA       CY      CPT       CA     9   180.000000    12.552000     2
      HA       CY      CPT      CPT     9   180.000000    12.552000     2
      HA     CTD1      CT2       CA     9     0.000000     0.167360     3
      HB      CP1        N        C     9     0.000000     3.347200     3
      HB      CP1        N      CP3     9     0.000000     0.418400     3
      HB      CP1       NP      CP3     9     0.000000     0.334720     3
      HB      CT1      NH1        C     9     0.000000     0.000000     1
      HB      CT1      NH1        H     9     0.000000     0.000000     1
      HB      CT2      NH1        C     9     0.000000     0.000000     1
      HB      CT2      NH1        H     9     0.000000     0.000000     1
      HB      CT3      NH1        C     9     0.000000     0.000000     1
      HB      CT3      NH1        H     9     0.000000     0.000000     1
    HPER     OPER     OPER     HPER     9     0.000000     8.451680     2
    CRL1     CRL1     CTL1     CTL2     9     0.000000     0.000000     3
    CRL1     CTL1     CTL2     CTL3     9   180.000000     1.003323     1
    CRL1     CTL1     CTL2     CTL3     9   180.000000     0.910020     2
    CRL1     CTL1     CTL2     CTL3     9   180.000000     0.509611     3
    CRL1     CTL1     CTL2     CTL2     9   180.000000     1.003323     1
    CRL1     CTL1     CTL2     CTL2     9   180.000000     0.910020     2
    CRL1     CTL1     CTL2     CTL2     9   180.000000     0.509611     3
    CRL1     CRL2     CEL1     CRL1     9   180.000000     1.255200     3
    CRL1     CRL2     CEL1     CTL1     9   180.000000     1.255200     3
    CRL1     CTL2     CEL1     CRL1     9   180.000000     1.255200     3
    CRL1     CTL2     CEL1     CTL1     9   180.000000     1.255200     3
    CRL2     CEL1     CRL1     CRL1     9   180.000000     0.000000     3
    CRL2     CEL1     CRL1     CTL1     9   180.000000     0.000000     3
    CRL2     CEL1     CRL1     CRL2     9   180.000000     1.255200     3
    CRL2     CEL1     CRL1     CTL2     9   180.000000     1.255200     3
    CRL2     CEL1     CRL1     CTL3     9   180.000000     0.000000     3
    CRL2     CEL1     CTL1     CRL1     9   180.000000     0.000000     3
    CRL2     CEL1     CTL1     CTL1     9   180.000000     0.000000     3
    CRL2     CEL1     CTL1     CTL3     9   180.000000     0.000000     3
    CRL2     CEL1     CTL1     CRL2     9   180.000000     1.255200     3
    CRL2     CEL1     CTL1     CTL2     9   180.000000     1.255200     3
    CRL2     CEL1     CEL2     HEL2     9   180.000000    21.756800     2
    ON2B        P      ON4      HN4     9   180.000000     6.694400     1
    ON2B        P      ON4      HN4     9     0.000000     3.765600     2
      F2      CF2        P      ON4     9     0.000000     0.418400     3
      F2      CF2        P      ON3     9     0.000000     0.000000     3
     CF2        P      ON4      HN4     9   180.000000     0.836800     1
     CF2        P      ON4      HN4     9     0.000000     6.694400     2
    HAL1   CC3152    OC301     CTL2     9     0.000000     1.188256     3
    HAL1     CTO1      OHL      HOL     9     0.000000     0.585760     3
    HAL1     CTO1      OSL       CL     9     0.000000     0.000000     3
    HAL1     CTO1     CEL3     CEL3     9     0.000000     0.125520     3
    HAL1     CTL1     CEL3     CEL3     9     0.000000     0.125520     3
    HAL1     CTL1     CTO1     CEL3     9     0.000000     0.836800     3
    HAL1     CTL1     CTO1     HAL1     9     0.000000     0.836800     3
    HAL1     CTL1     CTO1      OHL     9     0.000000     0.836800     3
    HAL1     CTL1     CTO1      OSL     9     0.000000     0.836800     3
    HAL1     CTL1      NHL        H     9     0.000000     0.000000     1
    HAL1     CTL1      NHL        C     9     0.000000     0.000000     1
    HAL1     CTL3     CTO1     CEL3     9     0.000000     0.836800     3
    CTO2    OC301   CC3162   OC3C61     9     0.000000     0.585760     1
    CTO2    OC301   CC3162   OC3C61     9     0.000000     4.058480     2
    CTO2    OC301   CC3162   OC3C61     9   180.000000     0.460240     3
    CTO2    OC301   CC3162     HCA1     9     0.000000     1.188256     3
    CTO2     CTL1     CTO1      OHL     9     0.000000     0.836800     3
     NHL    CC322    CC312     HCA1     9     0.000000     0.836800     3
     NHL    CC322    CC312    OC311     9     0.000000     0.836800     3
     NHL    CC322    CC312    CC312     9     0.000000     0.836800     3
     NHL        C     CTL2    CC301     9     0.000000     0.000000     1
     NHL        C     CTL2     HAL2     9     0.000000     0.000000     3
     NHL        C     CTL3     HAL3     9     0.000000     0.000000     3
     NHL        C     CTL1     HAL1     9     0.000000     0.000000     1
     NHL        C     CTL1      OH1     9     0.000000     0.000000     1
     NHL        C     CTL1     CEL3     9     0.000000     0.000000     1
     NHL     CTL1     CTL1     CTL3     9   180.000000     1.087840     1
     NHL     CTL1     CTL1     CTL3     9   180.000000     1.631760     2
     NHL     CTL1     CTL1     CTL3     9   180.000000     0.502080     3
     NHL     CTL1     CTO1     HAL1     9     0.000000     0.836800     3
     NHL     CTL1     CTO1      OSL     9   180.000000     6.819920     1
     NHL     CTL1     CTO1      OSL     9     0.000000     2.050160     2
     NHL     CTL1     CTO1      OSL     9     0.000000     2.384880     3
     NHL     CTL1     CTO1      OHL     9     0.000000     1.757280     1
     NHL     CTL1     CTO1      OHL     9   180.000000     6.401520     2
     NHL     CTL1     CTO1      OHL     9   180.000000     6.610720     3
     NHL     CTL1     CTL2      OSL     9   180.000000     6.819920     1
     NHL     CTL1     CTL2      OSL     9     0.000000     2.050160     2
     NHL     CTL1     CTL2      OSL     9     0.000000     2.384880     3
     NHL     CTL1     CTL2     OSLP     9     0.000000     5.732080     1
     NHL     CTL1     CTL2     OSLP     9     0.000000     1.422560     2
     NHL     CTL1     CTL2     OSLP     9   180.000000     0.836800     3
     NHL     CTL1     CTL2     OSLP     9   180.000000     0.083680     4
     NHL     CTL1     CTL2     OSLP     9     0.000000     0.585760     5
     NHL     CTL1     CTL2     OSLP     9     0.000000     0.251040     6
     NHL     CTL1     CTO2      OHL     9     0.000000     2.301200     1
     NHL     CTL1     CTO2      OHL     9   180.000000     6.819920     2
     NHL     CTL1     CTO2      OHL     9   180.000000     5.983120     3
      ZN       SS       ZN       SS     9     0.000000     0.000000     3
      ZN      NR2     CPH2      NR1     9     0.000000     0.000000     3
      ZN      NR2     CPH2      HR1     9     0.000000     0.000000     3
      ZN      NR2     CPH1     CPH1     9     0.000000     0.000000     3
      ZN      NR2     CPH1      CT2     9     0.000000     0.000000     3
      CT        C      NH1      CT1     9     0.000000     6.694400     1
      CT        C      NH1      CT1     9   180.000000    10.460000     2
      CT        C      NH1       CT     9     0.000000     6.694400     1
      CT        C      NH1       CT     9   180.000000    10.460000     2
      CT        C        N      CP1     9   180.000000    11.506000     2
      CT        C        N      CP1     9     0.000000     1.255200     4
      CT        C        N      CP3     9   180.000000    11.506000     2
      CT        C        N      CP3     9     0.000000     1.255200     4
      CT      CT2      CT2      HA2     9     0.000000     0.794960     3
      CT      CT2      CT2      CT2     9   180.000000     2.635920     1
      CT      CT2      CT2      CT2     9     0.000000     0.041840     2
      CT      CT2      CT2      CT2     9     0.000000     0.627600     3
      CT      CT2      CT2        S     9   180.000000     0.585760     1
      CT      CT2      CT2        S     9     0.000000     2.259360     2
      CT      CT2      CT2        S     9     0.000000     2.886960     3
      CT      CT2       CC      NH2     9   180.000000     2.594080     1
      CT      CT2       CC      NH2     9   180.000000     2.761440     2
      CT      CT2       CC      NH2     9   180.000000     3.012480     3
      CT      CT2       CC        O     9   180.000000     1.757280     1
      CT      CT2       CC        O     9   180.000000     0.627600     2
      CT      CT2       CC        O     9   180.000000     3.974800     3
      CT      CT2        S       HS     9     0.000000     0.836800     1
      CT      CT2        S       HS     9     0.000000     2.719600     2
      CT      CT2        S       HS     9     0.000000     0.920480     3
      CT      CT2     CPH1      NR1     9     0.000000     6.234160     1
      CT      CT2     CPH1      NR1     9   180.000000     0.376560     2
      CT      CT2     CPH1      NR1     9   180.000000     3.305360     3
      CT      CT2     CPH1      NR2     9     0.000000     4.560560     1
      CT      CT2     CPH1      NR2     9     0.000000     0.376560     2
      CT      CT2     CPH1      NR2     9   180.000000     2.803280     3
      CT      CT2      OH1        H     9     0.000000     0.083680     1
      CT      CT2      OH1        H     9     0.000000     2.343040     2
      CT      CT2      OH1        H     9     0.000000     2.050160     3
      CT      CT2      CT1      HA1     9     0.000000     0.836800     3
      CT      CT2      CT1      CT3     9     0.000000     0.209200     1
      CT      CT2      CT1      CT3     9   180.000000     0.418400     2
      CT      CT2      CT1      CT3     9   180.000000     0.041840     3
      CT     CT2A      CT2      HA2     9     0.000000     0.794960     3
      CT     CT2A      CT2       CD     9     0.000000     0.794960     3
      CT     CT2A       CC       OC     9     0.000000     3.514560     1
      CT     CT2A       CC       OC     9   180.000000     4.100320     2
      CT     CT2A       CC       OC     9     0.000000     6.108640     3
      CT     CT2A     CPH1      NR3     9   180.000000     2.217520     1
      CT     CT2A     CPH1      NR3     9   180.000000     1.757280     2
      CT     CT2A     CPH1      NR3     9   180.000000     1.255200     3
      CT      NH1        C      CP1     9     0.000000     6.694400     1
      CT      NH1        C      CP1     9   180.000000    10.460000     2
      CT     CC1A     CC1A      CT2     9   180.000000    41.840000     2
      CT     CC1A     CC1A      CT3     9   180.000000    41.840000     2
      CT     CC1A      CT3      HA3     9     0.000000     0.669440     3
      CT     CC1A     CC1B      CC2     9     0.000000     3.765600     1
      CT     CC1A     CC1B      CC2     9   180.000000     8.786400     2
      CT     CC1A     CC1B      CC2     9     0.000000     0.920480     3
      CT     CC1A     CC1B      CC2     9   180.000000     1.046000     5
      CT     CC1A     CC1B      CC2     9     0.000000     0.418400     6
      CT     CC1A     CC1B     CC1B     9     0.000000     3.765600     1
      CT     CC1A     CC1B     CC1B     9   180.000000     8.786400     2
      CT     CC1A     CC1B     CC1B     9     0.000000     0.920480     3
      CT     CC1A     CC1B     CC1B     9   180.000000     1.046000     5
      CT     CC1A     CC1B     CC1B     9     0.000000     0.418400     6
      CT     CC1A     CC1B      HE1     9   180.000000     4.184000     2
    HGP3    SG311    CG301      CT1     9     0.000000    50.454438     1
    HGP3    SG311    CG301      CT1     9     0.000000     8.644562     2
    HGP3    SG311    CG301      CT1     9     0.000000     0.946421     3
    CTD1   CG2R51   CG2R51   CG2R51     9   180.000000    17.991200     2
    CTD1   CG2R51   CG2R51    HGR51     9   180.000000     4.184000     2
    CTD1   CG2R51   CG2R51    HGR52     9   180.000000     4.184000     2
    CTD1   CG2R51   SG2R50   CG2R51     9   180.000000    10.634891     2
    CTD1   CG2R61   CG2R61   CG2R61     9   180.000000    12.970400     2
    CTD1   CG2R61   CG2R61   CG2R66     9   180.000000    12.970400     2
    CTD1   CG2R61   CG2R61    HGR61     9   180.000000    10.041600     2
    CTD1   CG2R61   CG2R61    HGR62     9   180.000000    10.041600     2
    CTD1   CG2R61   CG2R66   CG2R61     9   180.000000    12.970400     2
    CTD1   CG2R61   CG2R66     FGR1     9   180.000000    18.828000     2
    CTD1    CG311   CG2R61   CG2R61     9   180.000000     0.962320     2
    CTD1    CG311    CG311    CG331     9   180.000000     2.092000     4
    CTD1    CG311    CG311     HGA1     9     0.000000     0.815880     3
    CTD1    CG311    CG311    OG311     9     0.000000     0.585760     3
    CTD1    CG311    CG321    CG331     9     0.000000     0.836800     3
    CTD1    CG311    CG321     HGA2     9     0.000000     0.815880     3
    CTD1    CG311    CG331     HGA3     9     0.000000     0.836800     3
    CTD1    CG321   CG2DC1   CG2DC1     9     0.000000     2.092000     2
    CTD1    CG321   CG2DC1   CG2DC1     9     0.000000     1.255200     3
    CTD1    CG321   CG2DC1     HGA4     9     0.000000     0.502080     3
    CTD1    CG321   CG2R51   CG2R51     9     0.000000     0.836800     1
    CTD1    CG321   CG2R51   CG2R51     9     0.000000     1.129680     2
    CTD1    CG321   CG2R51   CG2R51     9     0.000000     0.000000     3
    CTD1    CG321   CG2R51   CG2RC0     9   180.000000     0.376560     2
    CTD1    CG321   CG2R51   CG2RC0     9     0.000000     2.384880     3
    CTD1    CG321   CG2R51   NG2R50     9     0.000000     0.794960     3
    CTD1    CG321   CG2R61   CG2R61     9   180.000000     0.962320     2
    CTD1    CG321   CG2R61   CG2R66     9   180.000000     0.962320     2
    CTD1    CG321   CG2R61   NG2R60     9   180.000000     0.962320     2
    CTD1    CG321    CG311    CG302     9     0.000000     0.836800     3
    CTD1    CG321    CG311    CG331     9     0.000000     0.836800     3
    CTD1    CG321    CG311     HGA1     9     0.000000     0.815880     3
    CTD1    CG321    CG321    CG311     9     0.000000     0.815880     3
    CTD1    CG321    CG321    CG321     9     0.000000     2.092000     3
    CTD1    CG321    CG321    CG321     9   180.000000     2.092000     6
    CTD1    CG321    CG321     HGA2     9     0.000000     0.815880     3
    CTD1    CG321    CG321    OG311     9     0.000000     0.815880     3
    CTD1    CG321    CG322    CG2O3     9     0.000000     3.980658     3
    CTD1    CG321    CG322     FGA1     9   180.000000     1.442643     3
    CTD1    CG321    CG322     HGA6     9   180.000000     0.076567     3
    CTD1    CG321    CG324     HGA2     9     0.000000     0.815880     3
    CTD1    CG321    CG324    NG2P1     9     0.000000     0.815880     3
    CTD1    CG321   CG3C51   CG3C52     9   180.000000     2.092000     4
    CTD1    CG321   CG3C51     HGA1     9     0.000000     0.815880     3
    CTD1    CG321   NG2R51   CG2R51     9     0.000000     1.610840     1
    CTD1    CG321   NG2R51   CG2R51     9     0.000000     1.757280     2
    CTD1    CG321   NG2R51   CG2R51     9     0.000000     0.334720     3
    CTD1    CG321   NG2R51   CG2R51     9     0.000000     0.230120     4
    CTD1    CG321   NG2R51   NG2R50     9   180.000000     1.610840     1
    CTD1    CG321   NG2R51   NG2R50     9     0.000000     1.757280     2
    CTD1    CG321   NG2R51   NG2R50     9   180.000000     0.334720     3
    CTD1    CG321   NG2R51   NG2R50     9     0.000000     0.230120     4
    CTD1    CG322    CG331     HGA3     9     0.000000     0.774040     3
    CTD1    CG324    NG2P1    CG2N1     9   180.000000     0.000000     6
    CTD1    CG324    NG2P1     HGP2     9   180.000000     0.000000     6
    CTD1        C        N      CP1     9   180.000000    11.506000     2
    CTD1        C        N      CP1     9     0.000000     1.255200     4
    CTD1        C        N      CP3     9   180.000000    11.506000     2
    CTD1        C        N      CP3     9     0.000000     1.255200     4
    CTD1        C        N     CPD1     9   180.000000    11.506000     2
    CTD1        C        N     CPD1     9     0.000000     1.255200     4
    CTD1        C      NH1     CTD1     9     0.000000     6.694400     1
    CTD1        C      NH1     CTD1     9   180.000000    10.460000     2
    CTD1      CT1      NH1        C     9     0.000000     7.531200     1
    CTD1      CT1      CT2      CT3     9   180.000000     1.589920     1
    CTD1      CT1      CT2      CT3     9   180.000000     0.543920     2
    CTD1      CT1      CT2      CT3     9   180.000000     1.213360     3
    CTD1      CT1      OH1        H     9     0.000000     0.753120     1
    CTD1      CT1      OH1        H     9     0.000000     0.251040     2
    CTD1      CT1      OH1        H     9     0.000000     1.046000     3
    CTD1      NH1        C      CP1     9     0.000000     6.694400     1
    CTD1      NH1        C      CP1     9   180.000000    10.460000     2
    CTD1      NH1        C     CPD1     9     0.000000     6.694400     1
    CTD1      NH1        C     CPD1     9   180.000000    10.460000     2
    CTD1     CT2A      CT2      HA2     9     0.000000     0.794960     3
    CTD1     CT2A      CT2       CD     9     0.000000     0.794960     3
    CTD1     CT2A     CPH1      NR3     9   180.000000     2.217520     1
    CTD1     CT2A     CPH1      NR3     9   180.000000     1.757280     2
    CTD1     CT2A     CPH1      NR3     9   180.000000     1.255200     3
    CTD1      CT2      CT2      CT2     9   180.000000     2.635920     1
    CTD1      CT2      CT2      CT2     9     0.000000     0.041840     2
    CTD1      CT2      CT2      CT2     9     0.000000     0.627600     3
    CTD1      CT2      CT2        S     9   180.000000     0.585760     1
    CTD1      CT2      CT2        S     9     0.000000     2.259360     2
    CTD1      CT2      CT2        S     9     0.000000     2.886960     3
    CTD1      CT2       CC      NH2     9   180.000000     2.594080     1
    CTD1      CT2       CC      NH2     9   180.000000     2.761440     2
    CTD1      CT2       CC      NH2     9   180.000000     3.012480     3
    CTD1      CT2       CC        O     9   180.000000     1.757280     1
    CTD1      CT2       CC        O     9   180.000000     0.627600     2
    CTD1      CT2       CC        O     9   180.000000     3.974800     3
    CTD1      CT2       CC       OC     9     0.000000     3.514560     1
    CTD1      CT2       CC       OC     9   180.000000     4.100320     2
    CTD1      CT2       CC       OC     9     0.000000     6.108640     3
    CTD1      CT2        S       HS     9     0.000000     0.836800     1
    CTD1      CT2        S       HS     9     0.000000     2.719600     2
    CTD1      CT2        S       HS     9     0.000000     0.920480     3
    CTD1      CT2     CPH1      NR1     9     0.000000     6.234160     1
    CTD1      CT2     CPH1      NR1     9   180.000000     0.376560     2
    CTD1      CT2     CPH1      NR1     9   180.000000     3.305360     3
    CTD1      CT2     CPH1      NR2     9     0.000000     4.560560     1
    CTD1      CT2     CPH1      NR2     9     0.000000     0.376560     2
    CTD1      CT2     CPH1      NR2     9   180.000000     2.803280     3
    CTD1      CT2      CT1      CT3     9     0.000000     0.209200     1
    CTD1      CT2      CT1      CT3     9   180.000000     0.418400     2
    CTD1      CT2      CT1      CT3     9   180.000000     0.041840     3
    CTD1      CT2      OH1        H     9     0.000000     0.083680     1
    CTD1      CT2      OH1        H     9     0.000000     2.343040     2
    CTD1      CT2      OH1        H     9     0.000000     2.050160     3
    NN3I      CN4     NN2G      HN2     9   180.000000     6.276000     2
    NN3I      CN4     NN2G      CN1     9   180.000000     6.276000     2
    CN3D      CN2      NN3      CN1     9   180.000000    41.840000     2
    CN3D      CN2      NN1      HN1     9   180.000000     8.368000     2
    CN3D      CN2      NN1      CN8     9   180.000000     9.414000     2
    CN3D      CN2      NN1      CN8     9     0.000000     5.439200     3
    CN3D      CN3      NN2      CN1     9   180.000000     4.184000     2
     HN1     NN1C      CN2      CN3     9   180.000000    33.472000     2
     HN1     NN1C      CN2     NN2C     9     0.000000     2.928800     1
     HN1     NN1C      CN2     NN2C     9   180.000000    25.104000     2
     HN1      NN1      CN8      HN8     9   180.000000     0.083680     2
     HN1      NN1      CN8      CN9     9     0.000000     0.209200     1
     HN1      NN1      CN8      CN8     9     0.000000     0.209200     1
    NN1C      CN2     NN2C      CN1     9   180.000000     4.184000     2
     CNA      CNA      CNA      CNA     9   180.000000    12.970400     2
     CNA     CNA2      CNA      CNA     9   180.000000    12.970400     2
     CNA     CN7B      CN7      CN7     9     0.000000     0.167360     3
    CNA2      CNA      CNA      CNA     9   180.000000    12.970400     2
    CNA2      CNA     CNA2      CNA     9   180.000000    12.970400     2
     HNP      CNA      CNA      CNA     9   180.000000    17.572800     2
     HNP      CNA      CNA     CNA2     9   180.000000    17.572800     2
     HNP      CNA      CNA      CN9     9   180.000000    17.572800     2
     HNP      CNA      CNA     CN7B     9   180.000000    17.572800     2
     HNP      CNA      CNA      HNP     9   180.000000    10.041600     2
     HNP      CNA     CNA2      CNA     9   180.000000    17.572800     2
     HNP      CNA     CNA2      FNA     9   180.000000    10.041600     2
     FNA     CNA2      CNA      CNA     9   180.000000    18.828000     2
     FNA     CNA2      CNA     CNA2     9   180.000000    18.828000     2
     FNA     CNA2      CNA      CN9     9   180.000000    18.828000     2
     FNA     CNA2      CNA     CN7B     9   180.000000    18.828000     2
    CNE2     CNE1     CN3T      CN3     9     0.000000     3.556400     1
    CNE2     CNE1     CN3T      CN3     9   180.000000     2.092000     2
    CNE2     CNE1     CN3T      CN1     9   180.000000     2.092000     2
    CNE2     CNE1     CN3T      CN1     9   180.000000     4.602400     3
    HNE2     CNE2     CNE1     HNE1     9   180.000000    21.756800     2
    HNE2     CNE2     CNE1     CN3T     9   180.000000    21.756800     2
     NNG      CNG      NNG      HN1     9   180.000000     9.414000     2
    CT2P        N      CT2      HB2     9   180.000000     0.418400     3
    CT2P        N       CC        O     9   180.000000    10.878400     2
    CT2P        N       CC      CT2     9   180.000000    10.878400     2
    ON2M     CN7B      CN7      ON2     9     0.000000     0.815880     3
    ON2M     CN7B      CN7      ON5     9     0.000000     0.815880     3
    CN7E      CN7      CN8      CN7     9     0.000000     0.627600     3
    CN7E      CN7      ON5      HN5     9     0.000000     6.276000     1
    CN7E      CN7      ON5      HN5     9   180.000000     1.255200     2
    CN7E      CN7      ON5      HN5     9     0.000000     2.092000     3
    CN7E      CN7      ON2        P     9     0.000000     2.092000     1
    CN7E      CN7      ON2        P     9   180.000000     1.882800     3
    CN7E      CN7      ON2        P     9   180.000000     1.882800     4
    CN7E      CN7      ON2        P     9   180.000000     1.046000     5
    CN7E      CN7      ON2       P2     9     0.000000     2.092000     1
    CN7E      CN7      ON2       P2     9   180.000000     1.882800     3
    CN7E      CN7      ON2       P2     9   180.000000     1.882800     4
    CN7E      CN7      ON2       P2     9   180.000000     1.046000     5
    CN7E      CN7      NN2      CN4     9   180.000000     2.092000     1
    CN7E      CN7      NN2      CN5     9   180.000000     4.602400     1
    CN7E      CN7      NN2      CN3     9     0.000000     1.673600     4
    CN7E      CN7      NN2      CN1     9     0.000000     4.184000     3
    CN7E      CN7     NN2B      CN4     9   180.000000     2.092000     1
    CN7E      CN7     NN2B      CN5     9   180.000000     4.602400     1
    CN7E      CN7     NN2B      CN3     9     0.000000     1.673600     4
    CN7E      CN7     NN2B     CN1T     9     0.000000     4.184000     3
    CN7E      CN8      CN6      CN7     9     0.000000     0.627600     3
    CN7E      CN8      CN6      HN7     9     0.000000     0.627600     3
    CN7E      CN8      CN6      NN2     9     0.000000     2.928800     3
    CN7E      CN8      CN6     NN2B     9     0.000000     0.627600     3
    CN7E     CN7E      CN8      CN6     9     0.000000     0.627600     3
    CN7E     CN7E      CN8      HN8     9     0.000000     0.627600     3
    CN7E     CN7E      CN6      CN8     9     0.000000     0.627600     3
    CN7E     CN7E      CN6      HN7     9     0.000000     0.627600     3
    CN7E     CN7E      CN6     NN2B     9     0.000000     0.627600     3
    CN7E     CN7E      CN6      NN2     9     0.000000     0.627600     3
    CN7E     CN7E     CN8B      HN8     9     0.000000     0.627600     3
    CN7E     CN7E     CN8B      ON2     9     0.000000     1.882800     2
    CN7E     CN7E      CN7      HN7     9     0.000000     0.627600     3
    CN7E     CN7E      CN7      ON2     9     0.000000     3.765600     6
    CN7E     CN7E      CN7      ON5     9     0.000000     3.765600     6
    CN7E      CN6      CN8      HN8     9     0.000000     0.627600     3
    CN7E      CN6      CN7      HN7     9     0.000000     0.627600     3
    CN7E      CN6      CN7      CN8     9     0.000000     2.092000     3
    CN7E      CN6      CN7      ON2     9     0.000000     1.882800     2
    CN7E      CN6      CN7      ON5     9     0.000000     1.882800     2
    CN7E      CN6     CN8B      CN7     9     0.000000     7.322000     3
    CN7E      CN6     CN8B      ON2     9     0.000000     2.510400     1
    CN7E      CN6     CN8B      ON2     9     0.000000     2.928800     3
    CN7E      CN6     CN8B      ON5     9     0.000000     2.510400     1
    CN7E      CN6     CN8B      ON5     9     0.000000     2.928800     3
    CN7E      CN6      NN2      CN5     9   180.000000     4.602400     1
    CN7E      CN6      NN2      CN4     9   180.000000     4.602400     1
    CN7E      CN6      NN2      CN3     9   180.000000     0.000000     3
    CN7E      CN6      NN2      CN1     9   180.000000     0.836800     3
    CN7E      CN6     NN2B      CN5     9   180.000000     4.602400     1
    CN7E      CN6     NN2B      CN4     9   180.000000     4.602400     1
    CN7E      CN6     NN2B      CN3     9   180.000000     0.000000     3
    CN7E      CN6     NN2B     CN1T     9     0.000000     1.255200     3
     CN6      CN8     CN7E      CN7     9     0.000000     0.627600     3
     CN6     CN7E     CN7E     CN8B     9     0.000000     0.627600     3
     CN6     CN7E     CN7E      CN7     9     0.000000     7.322000     3
     CN6     CN7E      CN7      CN8     9     0.000000     2.092000     3
     CN6     CN7E      CN7     NN2B     9     0.000000     0.627600     3
     CN6     CN7E      CN7      NN2     9     0.000000     0.627600     3
     CN6     CN8B      CN7      HN7     9     0.000000     0.627600     3
     CN6     CN8B      CN7     CN7E     9     0.000000     0.627600     3
     CN6     CN8B      CN7      ON2     9     0.000000     7.949600     2
     CN6     CN8B      CN7      ON5     9     0.000000     7.949600     2
     CN6      CN7      CN8      CN7     9     0.000000     1.673600     6
     CN6      CN7      ON2        P     9   180.000000    10.041600     1
     CN6      CN7      ON2        P     9   180.000000     1.673600     2
     CN6      CN7      ON2        P     9   240.000000     6.276000     3
     CN6      CN7      ON2       P2     9   180.000000    10.041600     1
     CN6      CN7      ON2       P2     9   180.000000     1.673600     2
     CN6      CN7      ON2       P2     9   240.000000     6.276000     3
     CN6      CN7      ON5      HN5     9     0.000000     2.092000     3
    CPD1        C        N     CPD1     9   180.000000    11.506000     2
    CPD1        C        N     CPD1     9     0.000000     1.255200     4
    CC1A     CC1A      CT3      HA3     9   180.000000     1.255200     3
    CC1A     CC1A     CC1B      CC2     9   180.000000     2.092000     1
    CC1A     CC1A     CC1B      CC2     9     0.000000     8.368000     2
    CC1A     CC1A     CC1B      CC2     9     0.000000     4.184000     3
    CC1A     CC1A     CC1B     CC1B     9   180.000000     2.092000     1
    CC1A     CC1A     CC1B     CC1B     9     0.000000     8.368000     2
    CC1A     CC1A     CC1B     CC1B     9     0.000000     4.184000     3
    CC1A     CC1A     CC1B      HE1     9   180.000000     4.184000     2
    CC1A     CC1A       CT      CT2     9     0.000000     2.092000     2
    CC1A     CC1A       CT      CT2     9     0.000000     1.255200     3
    CC1A     CC1A       CT      CT3     9     0.000000     2.092000     2
    CC1A     CC1A       CT      CT3     9     0.000000     1.673600     3
    CC1A     CC1A      CT2      CT2     9     0.000000     2.092000     2
    CC1A     CC1A      CT2      CT2     9     0.000000     1.255200     3
    CC1A     CC1A      CT2      OH1     9   180.000000     7.949600     1
    CC1A     CC1A      CT2      OH1     9   180.000000     1.673600     2
    CC1A     CC1A      CT2      OH1     9   180.000000     2.510400     3
    CC1A     CC1A      CT2      HA2     9     0.000000     0.125520     3
    CC1A     CC1A       CD        O     9   180.000000     4.184000     2
    CC1A     CC1A       CD      HR1     9   180.000000    13.388800     2
    CC1A     CC1A       CC       OC     9   180.000000     5.439200     2
    CC1A     CC1B     CC1B     CC1A     9   180.000000     2.343040     1
    CC1A     CC1B     CC1B     CC1A     9   180.000000    29.288000     2
    CC1A     CC1B     CC1B      CT3     9   180.000000     2.343040     1
    CC1A     CC1B     CC1B      CT3     9   180.000000    29.288000     2
    CC1A      CT2      CT2      CT2     9     0.000000     0.794960     3
    CC1A      CT2      CT2      HA2     9     0.000000     0.794960     3
    CC1A      CT2      OH1        H     9     0.000000     5.439200     1
    CC1A      CT2      OH1        H     9     0.000000     2.928800     2
    CC1A      CT2      OH1        H     9     0.000000     2.092000     3
    CC1A       CT      CT2      HA2     9     0.000000     0.794960     3
    CC1A       CT      CT3      HA3     9     0.000000     0.669440     3
    CC1A        C      NH1        H     9   180.000000    10.460000     2
    CC1A        C      NH1      CT3     9     0.000000     6.694400     1
    CC1A        C      NH1      CT3     9   180.000000    10.460000     2
    CC1A        C      NH1       CA     9     0.000000     6.694400     1
    CC1A        C      NH1       CA     9   180.000000    10.460000     2
     CC2     CC1A     CC1B      CC2     9   180.000000     1.673600     1
     CC2     CC1A     CC1B      CC2     9   180.000000     1.673600     2
     CC2     CC1A     CC1B      CC2     9     0.000000     5.439200     3
     CC2     CC1A     CC1B      HE1     9   180.000000     4.184000     2
     CC2     CC1A     CC1B     CC1B     9   180.000000     2.510400     1
     CC2     CC1A     CC1B     CC1B     9   180.000000     2.092000     2
     CC2     CC1A     CC1B     CC1B     9     0.000000     4.184000     3
     CC2     CC1A      CT3      HA3     9     0.000000     1.255200     3
     CC2     CC1A      CT2      OH1     9   180.000000     7.949600     1
     CC2     CC1A      CT2      OH1     9   180.000000     1.673600     2
     CC2     CC1A      CT2      OH1     9   180.000000     2.510400     3
     CC2     CC1A      CT2      HA2     9     0.000000     0.125520     3
     CC2     CC1A       CD        O     9   180.000000     4.184000     2
     CC2     CC1A       CD      HR1     9   180.000000    13.388800     2
     CC2     CC1A       CC       OC     9   180.000000     5.439200     2
    CC1B     CC1A     CC1A     CC1B     9   180.000000     2.343040     1
    CC1B     CC1A     CC1A     CC1B     9   180.000000    29.288000     2
    CC1B     CC1A     CC1A      CT2     9   180.000000     2.343040     1
    CC1B     CC1A     CC1A      CT2     9   180.000000    29.288000     2
    CC1B     CC1A     CC1A      CT3     9   180.000000     2.343040     1
    CC1B     CC1A     CC1A      CT3     9   180.000000    29.288000     2
    CC1B     CC1A     CC1A        C     9   180.000000     2.343040     1
    CC1B     CC1A     CC1A        C     9   180.000000    29.288000     2
    CC1B     CC1A     CC1A       CD     9   180.000000     2.343040     1
    CC1B     CC1A     CC1A       CD     9   180.000000    29.288000     2
    CC1B     CC1A     CC1A       CC     9   180.000000     2.343040     1
    CC1B     CC1A     CC1A       CC     9   180.000000    29.288000     2
    CC1B     CC1A      CT3      HA3     9     0.000000     1.255200     3
    CC1B     CC1A       CT      CT2     9     0.000000     1.255200     3
    CC1B     CC1A       CT      CT3     9     0.000000     1.255200     3
    CC1B     CC1B      CT3      HA3     9     0.000000     1.255200     3
    CC1B      NS1      CT3      HA3     9   180.000000     1.464400     3
    CC1B      NS2      CT3      HA3     9   180.000000     0.627600     3
     NS1     CC1B      CT3      HA3     9   180.000000     0.418400     3
     NS1     CC1B     CC1A     CC1A     9     0.000000     2.092000     1
     NS1     CC1B     CC1A     CC1A     9   180.000000     9.204800     2
     NS1     CC1B     CC1A     CC1A     9     0.000000     4.602400     3
     NS1     CC1B     CC1A     CC1A     9     0.000000     2.510400     4
     NS1     CC1B     CC1A      HE1     9   180.000000     4.184000     2
     NS2     CC1B      CT3      HA3     9   180.000000     0.627600     3
     NS2     CC1B     CC1A      HE1     9   180.000000     4.184000     2
     NS2     CC1B     CC1A      CC2     9     0.000000     2.092000     1
     NS2     CC1B     CC1A      CC2     9   180.000000     9.204800     2
     NS2     CC1B     CC1A      CC2     9     0.000000     4.602400     3
     NS2     CC1B     CC1A      CC2     9     0.000000     2.510400     4
     NS2     CC1B     CC1A     CC1A     9     0.000000     2.092000     1
     NS2     CC1B     CC1A     CC1A     9   180.000000     9.204800     2
     NS2     CC1B     CC1A     CC1A     9     0.000000     4.602400     3
     NS2     CC1B     CC1A     CC1A     9     0.000000     2.510400     4
      HL     CTL2       CC       OC     9   180.000000     0.209200     6
    CTL5      NTL      OHL      HOL     9     0.000000     1.158968     3
     HOL      OHL      NTL     CTL2     9     0.000000     1.158968     3
     HOL      OHL     CTL1     CEL3     9     0.000000     5.564720     1
     HOL      OHL     CTO1     CEL3     9     0.000000     5.564720     1
     HOL      OHL     CTO1     CTL3     9     0.000000     0.000000     3
    CEL3     CEL3     CTL2     CTL3     9   180.000000     3.807440     1
    CEL3     CEL3     CTL2     CTL3     9   180.000000     0.753120     2
    CEL3     CEL3     CTL2     CTL3     9   180.000000     0.711280     3
    CEL3     CEL3     CTL2     CTL2     9   180.000000     3.807440     1
    CEL3     CEL3     CTL2     CTL2     9   180.000000     0.753120     2
    CEL3     CEL3     CTL2     CTL2     9   180.000000     0.711280     3
    CEL3     CEL3     CTL2     HAL2     9   180.000000     1.255200     3
    CEL3     CEL3     CTO1     CTL1     9     0.000000     3.598240     1
    CEL3     CEL3     CTO1     CTL1     9     0.000000     7.991440     2
    CEL3     CEL3     CTO1     CTL1     9   180.000000     6.359680     3
    CEL3     CEL3     CTO1      OHL     9   180.000000     5.773920     1
    CEL3     CEL3     CTO1      OHL     9     0.000000     2.426720     2
    CEL3     CEL3     CTO1      OHL     9     0.000000     4.309520     3
    CEL3     CEL3     CTL3     HAL3     9   180.000000     1.255200     3
    CEL3     CTO1      OSL       CL     9     0.000000     0.920480     1
    CEL3     CTO1      OSL       CL     9   180.000000     1.171520     2
    CEL3     CTO1      OSL       CL     9     0.000000     3.723760     3
    CEL3     CTO1     CTL1      NHL     9     0.000000     3.932960     1
    CEL3     CTO1     CTL1      NHL     9   180.000000     3.681920     2
    CEL3     CTO1     CTL1      NHL     9     0.000000     8.744560     3
    CEL3     CTO1     CTL1     CTL2     9     0.000000     0.000000     1
    CEL3     CTO1     CTL1     CTO2     9     0.000000     0.000000     1
    CTO1     CEL3     CEL3     CTL2     9     0.000000     0.627600     1
    CTO1     CEL3     CEL3     CTL2     9   180.000000    35.564000     2
    CTO1     CEL3     CEL3     HEL1     9   180.000000     0.627600     1
    CTO1     CEL3     CEL3     HEL1     9   180.000000    35.564000     2
    CTO1     CTL1     CTL2      OSL     9   180.000000     1.631760     1
    CTO1     CTL1     CTL2      OSL     9   180.000000     2.133840     2
    CTO1     CTL1     CTL2      OSL     9   180.000000     3.640080     3
    HN3B      CN3     CN3A     HN3B     9   180.000000     8.368000     2
    HN3B      CN3     CN3B     HN3B     9   180.000000     4.184000     2
    CN1A      CN3     CN3B     HN3B     9   180.000000     4.184000     2
    CN1A      CN3     CN3A     HN3B     9   180.000000    20.920000     2
    CN1A      CN3      CN3      HN3     9   180.000000     4.184000     2
    CN1A      CN3     CN3C      NN2     9   180.000000    10.460000     2
    CN3A      CN3     CN1A      ON1     9   180.000000     9.957920     2
    CN3A      CN3     CN1A      NN1     9   180.000000     1.464400     1
    CN3A      CN3     CN1A      NN1     9     0.000000     2.594080     2
    CN3B      CN3     CN1A      ON1     9   180.000000     9.957920     2
    CN3B      CN3     CN1A      NN1     9     0.000000     1.464400     1
    CN3B      CN3     CN1A      NN1     9     0.000000     2.594080     2
    CN3B      NN2     CN3B      CN3     9   180.000000    16.736000     2
    CN3C      CN3     CN1A      ON1     9     0.000000     1.255200     1
    CN3C      CN3     CN1A      ON1     9   180.000000     8.158800     2
    CN3C      CN3     CN1A      NN1     9   180.000000     4.602400     1
    CN3C      CN3     CN1A      NN1     9   180.000000     8.158800     2
    CN3C      CN3      CN8      CN3     9   180.000000    16.736000     3
    CN3C      NN2     CN3C      CN3     9   180.000000     0.418400     2
      C3       C3       C3      HB2     9     0.000000     0.418400     6
       X       CS       SS        X     9     0.200000     0.000000     3
       X        C      NC2        X     9   180.000000     9.414000     2
       X       CD      OH1        X     9   180.000000     8.577200     2
       X       CD       OS        X     9   180.000000     8.577200     2
       X      CE1      CE1        X     9     0.000000     0.627600     1
       X      CE1      CE1        X     9   180.000000    35.564000     2
       X      CE2      CE2        X     9   180.000000    20.501600     2
       X      CP1        C        X     9   180.000000     0.000000     6
       X      CP1       CC        X     9   180.000000     0.000000     6
       X      CP1       CD        X     9   180.000000     0.000000     6
       X      CP1      CP2        X     9     0.000000     0.585760     3
       X      CP2      CP2        X     9     0.000000     0.669440     3
       X      CP3      CP2        X     9     0.000000     0.585760     3
       X      CT1       CC        X     9   180.000000     0.209200     6
       X      CT1       CD        X     9   180.000000     0.000000     6
       X      CT1      CT1        X     9     0.000000     0.836800     3
       X      CT1      CT2        X     9     0.000000     0.836800     3
       X      CT1      CT3        X     9     0.000000     0.836800     3
       X      CT1      NH3        X     9     0.000000     0.418400     3
       X      CT1      OH1        X     9     0.000000     0.585760     3
       X      CT1       OS        X     9     0.000000    -0.418400     3
       X      CT1       CS        X     9     0.000000     0.836800     3
       X      CT2       CA        X     9     0.000000     0.000000     6
       X      CT2       CC        X     9   180.000000     0.209200     6
       X      CT2       CD        X     9   180.000000     0.000000     6
       X      CT2      CT2        X     9     0.000000     0.794960     3
       X      CT2      CT3        X     9     0.000000     0.669440     3
       X      CT2      NC2        X     9   180.000000     0.000000     6
       X      CT2      NH3        X     9     0.000000     0.418400     3
       X      CT2      OH1        X     9     0.000000     0.585760     3
       X      CT2       OS        X     9     0.000000    -0.418400     3
       X      CT3       CA        X     9     0.000000     0.000000     6
       X      CT3       CC        X     9   180.000000     0.209200     6
       X      CT3       CD        X     9   180.000000     0.000000     6
       X      CT3      CT3        X     9     0.000000     0.638060     3
       X      CT3      NC2        X     9   180.000000     0.000000     6
       X      CT3      NH2        X     9     0.000000     0.460240     3
       X      CT3      NH3        X     9     0.000000     0.376560     3
       X      CT3      OH1        X     9     0.000000     0.585760     3
       X      CT3       OS        X     9     0.000000    -0.418400     3
       X     CT2A       CC        X     9   180.000000     0.209200     6
       X      CN8      ON2        X     9     0.000000    -0.418400     3
       X      CN8      NN6        X     9     0.000000     0.418400     3
       X      CN8      CN8        X     9     0.000000     0.627600     3
       X      CN8      CN9        X     9     0.000000     0.627600     3
       X      CN7      CN8        X     9     0.000000     0.836800     3
       X      ON4        P        X     9     0.000000     1.255200     3
       X      ON4       P2        X     9     0.000000     1.255200     3
       X      ON4       P4        X     9     0.000000     1.255200     3
       X      CN2      NN3        X     9   180.000000     8.368000     2
       X      CN2      CN3        X     9   180.000000     3.347200     2
       X      CN2     NN2G        X     9   180.000000     4.184000     2
       X      CN2      CN5        X     9   180.000000     4.184000     2
       X      CN2     NN3A        X     9   180.000000     4.184000     2
       X      CN2     NN3G        X     9   180.000000     4.184000     2
       X      CN1      NN3        X     9   180.000000     4.184000     2
       X      CN1      NN2        X     9   180.000000     3.765600     2
       X      CN1     NN2G        X     9   180.000000     3.765600     2
       X      CN1     NN2U        X     9   180.000000     3.765600     2
       X      CN1      CN3        X     9   180.000000     4.184000     2
       X      CN1     CN3T        X     9   180.000000     4.184000     2
       X      CN1     CN5G        X     9   180.000000     4.184000     2
       X     CN1T     NN2B        X     9   180.000000     3.765600     2
       X     CN1T     NN2U        X     9   180.000000     3.765600     2
       X      CN3      NN2        X     9   180.000000     4.184000     2
       X      CN3     NN2B        X     9   180.000000     4.184000     2
       X      CN3      CN3        X     9   180.000000     4.184000     2
       X      CN3     CN3T        X     9   180.000000     4.184000     2
       X      CN3     CN3A        X     9   180.000000     4.184000     2
       X      CN3     CN3B        X     9   180.000000     4.184000     2
       X      CN3      CN8        X     9   180.000000     4.184000     3
       X      CN3     CN3C        X     9   180.000000     0.418400     2
       X      CN4      NN2        X     9   180.000000     6.276000     2
       X      CN4     NN2B        X     9   180.000000     6.276000     2
       X      CN4     NN3A        X     9   180.000000    14.644000     2
       X      CN4      NN4        X     9   180.000000     8.368000     2
       X      CN4     NN3I        X     9   180.000000    14.644000     2
       X      CN5      CN5        X     9   180.000000     0.000000     2
       X      CN5      NN2        X     9   180.000000     6.276000     2
       X      CN5     NN2B        X     9   180.000000     6.276000     2
       X      CN5     NN3A        X     9   180.000000     4.184000     2
       X      CN5     NN3G        X     9   180.000000     4.184000     2
       X      CN5      NN4        X     9   180.000000     4.184000     2
       X      CN5     NN3I        X     9   180.000000     4.184000     2
       X     CN5G      CN5        X     9   180.000000     0.000000     2
       X     CN5G      NN4        X     9   180.000000     4.184000     2
       X     CTL1      OHL        X     9     0.000000     0.585760     3
       X     CTL1      CCL        X     9   180.000000     0.209200     6
       X     CTL1      OSL        X     9     0.000000     0.000000     3
       X     CTL1     OSLP        X     9     0.000000     0.000000     3
       X     CTL1     NH3L        X     9     0.000000     0.418400     3
       X     CTL1     CTL1        X     9     0.000000     0.836800     3
       X     CTL1     CTL2        X     9     0.000000     0.836800     3
       X     CTL1     CTL3        X     9     0.000000     0.836800     3
       X     CTL1     CRL2        X     9     0.000000     0.836800     3
       X     CTL1     CTO1        X     9     0.000000     0.836800     3
       X     CTL1     CTO2        X     9     0.000000     0.836800     3
       X     CTL2      OHL        X     9     0.000000     0.585760     3
       X     CTL2       CL        X     9   180.000000     0.209200     6
       X     CTL2      OSL        X     9     0.000000     0.000000     3
       X     CTL2     OSLP        X     9     0.000000     0.000000     3
       X     CTL2      NTL        X     9     0.000000     1.087840     3
       X     CTL2     NH3L        X     9     0.000000     0.418400     3
       X     CTL2     CTL2        X     9     0.000000     0.794960     3
       X     CTL2     CTL3        X     9     0.000000     0.669440     3
       X     CTL2     CRL2        X     9     0.000000     0.794960     3
       X     CTL3      OHL        X     9     0.000000     0.585760     3
       X     CTL3       CL        X     9   180.000000     0.209200     6
       X     CTL3      OSL        X     9     0.000000     0.000000     3
       X     CTL3     OSLP        X     9     0.000000     0.000000     3
       X     CTL3     CTL3        X     9     0.000000     0.638060     3
       X       CL      OSL        X     9   180.000000     8.577200     2
       X       CL      OHL        X     9   180.000000     8.577200     2
       X      OHL       PL        X     9     0.000000     1.255200     3
       X     CTL5      NTL        X     9     0.000000     0.962320     3
       X     CEL1     CEL1        X     9   180.000000     1.882800     1
       X     CEL1     CEL1        X     9   180.000000    35.564000     2
       X     CEL1     CTL1        X     9   180.000000     0.000000     3
       X     CEL1     CRL1        X     9   180.000000     0.000000     3
       X     CEL2     CEL2        X     9   180.000000    20.501600     2
       X       FE       SS        X     9     0.000000     0.000000     4
       X       FE       CM        X     9     0.000000     0.209200     4
       X       FE      NPH        X     9     0.000000     0.000000     2
       X       FE      NR2        X     9     0.000000     0.209200     4
       X       FE       OM        X     9     0.000000     0.000000     4
       X      CPA      CPB        X     9     0.000000     0.000000     2
       X      CPA      CPM        X     9     0.000000     0.000000     2
       X      CPB      CE1        X     9   180.000000    12.552000     2
       X      CPB      CPB        X     9     0.000000     0.000000     2
       X      CPB      CT2        X     9     0.000000     0.000000     6
       X      CPB      CT3        X     9     0.000000     0.000000     6
       X      CPT      CPT        X     9   180.000000     0.000000     2
       X      NPH      CPA        X     9     0.000000     0.000000     2
       X     CRL1      OHL        X     9     0.000000     0.585760     3
       X     CRL1     CTL1        X     9     0.000000     0.836800     3
       X     CRL1     CRL1        X     9     0.000000     0.836800     3
       X     CRL1     CTL2        X     9     0.000000     0.836800     3
       X     CRL1     CRL2        X     9     0.000000     0.836800     3
       X     CRL1     CTL3        X     9     0.000000     0.836800     3
       X     CRL1     NH3L        X     9     0.000000     0.418400     3
       X     CRL2      OHL        X     9     0.000000     0.585760     3
       X     CRL2     CRL2        X     9     0.000000     0.794960     3
       X     CRL2     CTL3        X     9     0.000000     0.669440     3
       X   CG3RC1   CG3RC1        X     9   180.000000     1.882800     1
       X   CG3RC1   CG3RC1        X     9   180.000000    35.564000     2
       X     CTD1      CT2        X     9     0.000000     0.836800     3
       X     CTD1      CT3        X     9     0.000000     0.836800     3
       X     CTD1       CD        X     9   180.000000     0.000000     6
       X     CTD1       CC        X     9   180.000000     0.209200     6
       X     CPD1        C        X     9   180.000000     0.000000     6
       X     CPD1       CC        X     9   180.000000     0.000000     6
       X     CPD1       CD        X     9   180.000000     0.000000     6
       X     CPD1      CP2        X     9     0.000000     0.585760     3
       X     CTO1     CTL3        X     9     0.000000     0.836800     3
       X     CTO2      OHL        X     9     0.000000     0.585760     3
       X      NN1     CN1A        X     9   180.000000    10.460000     2
       X      NN2     CN3B        X     9   180.000000     4.184000     2
       X      NN2     CN3C        X     9   180.000000     0.418400     2
       X        X    CG1T1    CG1T1     9   180.000000     0.000000     3
       X        X    CG1T1    CG1T2     9   180.000000     0.000000     3
       X    CG1T1    CG1T1        X     9   180.000000     0.000000     3
       X    CG1T1    CG1T2        X     9   180.000000     0.000000     3


[ dihedraltypes ]
; 'improper' dihedrals 
;      i        j        k        l  func         phi0         kphi
     HE2      HE2      CE2      CE2     2     0.000000    25.104000
     HR1      NR1      NR2     CPH2     2     0.000000     4.184000
     HR1      NR2      NR1     CPH2     2     0.000000     4.184000
     HR3     CPH1      NR1     CPH1     2     0.000000     4.184000
     HR3     CPH1      NR2     CPH1     2     0.000000     4.184000
     HR3     CPH1      NR3     CPH1     2     0.000000     8.368000
     HR3      NR1     CPH1     CPH1     2     0.000000     4.184000
     HR3      NR2     CPH1     CPH1     2     0.000000     4.184000
       N        C      CP1      CP3     2     0.000000     0.000000
       C       HC       HC      NC2     2     0.000000     0.000000
     NR1     CPH1     CPH2        H     2     0.000000     3.765600
     NR1     CPH2     CPH1        H     2     0.000000     3.765600
     NR3     CPH1     CPH2        H     2     0.000000    10.041600
     NR3     CPH2     CPH1        H     2     0.000000    10.041600
       O      CP1      NH2       CC     2     0.000000   376.560000
       O      CT1      NH2       CC     2     0.000000   376.560000
       O      CT2      NH2       CC     2     0.000000   376.560000
       O      CT3      NH2       CC     2     0.000000   376.560000
       O      HA1      NH2       CC     2     0.000000   376.560000
       O        N      CT2       CC     2     0.000000  1004.160000
       O      NH2      CP1       CC     2     0.000000   376.560000
       O      NH2      CT1       CC     2     0.000000   376.560000
       O      NH2      CT2       CC     2     0.000000   376.560000
       O      NH2      CT3       CC     2     0.000000   376.560000
       O      NH2      HA1       CC     2     0.000000   376.560000
  CG25C1   CG25C2   CG2RC0    NG2D1     2     0.000000   457.980640
  CG25C1   CG3C52   CG3C52    NG2D1     2     0.000000   409.195200
   CG2D1    CG301    CG331    NG2D1     2     0.000000   160.498240
   CG2D1    CG311    CG321    NG2D1     2     0.000000     9.706880
   CG2D1    CG321    CG331    NG2D1     2     0.000000   126.356800
   CG2D1    CG331   CG3RC1    NG2D1     2     0.000000    43.764640
   CG2D1    CG331    NG2D1     HGA4     2     0.000000   209.200000
   CG2D1    CG331    NG2P1    HGR52     2     0.000000   150.624000
  CG2D1O   CG2D1O    CG331    NG2D1     2     0.000000    53.806240
  CG2D1O   CG2DC1    CG331    NG2D1     2     0.000000    91.713280
  CG2D1O   CG2D1O   CG2DC2    NG2O1     2     0.000000   102.089600
  CG2D1O   CG2DC1    CG2O3   NG2R43     2     0.000000   236.814400
  CG2D1O    CG2D1    CG331    NG2S0     2     0.000000   147.862560
  CG2D1O    CG2D1    CG321    NG2S1     2     0.000000    39.831680
  CG2D1O   CG2DC1    CG2O1    NG2S1     2     0.000000   236.835320
  CG2D1O    CG2D1    CG314    NG311     2     0.000000   391.873440
  CG2D1O   CG2D1O    CG2O1    NG311     2     0.000000    50.459040
  CG2D1O   CG2D1O    CG321    NG311     2     0.000000    89.537600
  CG2D1O   CG2DC1   CG2R61    NG311     2     0.000000   156.565280
  CG2D1O   CG2D1O   CG2DC2    NG321     2     0.000000   277.566560
  CG2D1O   CG2R61    NG2D1    OG301     2     0.000000   296.729280
  CG2D1O   CG25C1    CG331    OG311     2     0.000000   199.827840
  CG2D1O    CG311    NG2D1    OG311     2     0.000000   493.544640
  CG2D1O   CG25C1    CG2O3    OG312     2     0.000000   250.788960
  CG2D1O   CG2DC1   CG2R61    OG312     2     0.000000     3.347200
  CG2D1O    CG331    NG2D1   OG3R60     2     0.000000   528.271840
  CG2D1O    CG331    NG2D1    SG311     2     0.000000   157.339320
  CG2D1O   CG251O    NG301     HGA4     2     0.000000   289.532800
  CG2D1O   CG25C1    NG301     HGA4     2     0.000000   332.293280
  CG2D1O    CG2D1    NG301     HGA4     2     0.000000   443.504000
  CG2D1O    CG2D1    NG311     HGA4     2     0.000000   443.504000
  CG2D1O    CG2D1    NG3P1     HGA4     2     0.000000   302.670560
  CG2D1O    CG2D1    NG3P2     HGA4     2     0.000000    41.756320
  CG2D1O    CG2D1    OG301     HGA4     2     0.000000   192.464000
  CG2D1O   CG2D1O    NG2D1     HGA4     2     0.000000   145.017440
  CG2D1O   CG2D1O    NG301     HGA4     2     0.000000   165.184320
  CG2D1O   CG2D1O    NG311     HGA4     2     0.000000   467.771200
  CG2D1O    CG2D2   NG2R61     HGA4     2     0.000000   193.970240
  CG2D1O    CG2D2    NG321     HGA4     2     0.000000   443.504000
  CG2D1O    CG2D2   NG3C51     HGA4     2     0.000000   108.784000
  CG2D1O    CG2D2    OG301     HGA4     2     0.000000   192.464000
  CG2D1O   CG2DC1    NG2D1     HGA4     2     0.000000   251.040000
  CG2D1O   CG2DC1    NG2P1     HGA4     2     0.000000   251.040000
  CG2D1O   CG2DC1    NG2S1     HGA4     2     0.000000   214.388160
  CG2D1O   CG2DC1    NG301     HGA4     2     0.000000   443.504000
  CG2D1O   CG2DC1    NG311     HGA4     2     0.000000   443.504000
  CG2D1O   CG2DC1    OG301     HGA4     2     0.000000    83.680000
  CG2D2O    NG321    NG321   CG2DC2     2     0.000000   292.210560
  CG2D2O    CG2D1    NG301     HGA4     2     0.000000   443.504000
  CG2D2O    CG2D1    NG311     HGA4     2     0.000000   443.504000
  CG2D2O    CG2D2    NG321     HGA4     2     0.000000   443.504000
  CG2D2O    CG2D2    OG301     HGA4     2     0.000000   192.464000
  CG2D2O   CG2DC2    NG2S0     HGA4     2     0.000000   127.695680
  CG2D2O   CG2DC2    NG301     HGA4     2     0.000000   443.504000
  CG2D2O   CG2DC2    NG311     HGA4     2     0.000000   443.504000
  CG2D2O   CG2DC2    OG301     HGA4     2     0.000000    83.680000
  CG2DC1   CG2DC2    CG2O5    NG2D1     2     0.000000     8.368000
  CG2DC1    CG2O3    CG331    NG2D1     2     0.000000   133.636123
  CG2DC1   CG2R53    CG321    NG2D1     2     0.000000   538.141896
  CG2DC1   CG2R53    CG331    NG2D1     2     0.000000   538.141896
  CG2DC1   CG2R61    CG301    NG2D1     2     0.000000   538.146080
  CG2DC1   CG2R61    CG321    NG2D1     2     0.000000   538.146080
  CG2DC1   CG2R61    CG331    NG2D1     2     0.000000   538.146080
  CG2DC1    CG321    CG321    NG2D1     2     0.000000  1004.243680
  CG2DC1    CG321    CG331    NG2D1     2     0.000000  1004.227781
  CG2DC1    CG331    CG331    NG2D1     2     0.000000  1004.227781
  CG2DC1   CG2R51    NG2D1     HGA4     2     0.000000   251.040000
  CG2DC1   CG2R61    NG2D1     HGA4     2     0.000000   251.040000
  CG2DC1   CG2RC0    NG2D1     HGA4     2     0.000000   251.040000
  CG2DC1    CG314    NG2D1     HGA4     2     0.000000    92.048000
  CG2DC1   CG2DC2    NG2P1    HGR52     2     0.000000   108.784000
  CG2DC2   CG2DC1    CG2O5    NG2D1     2     0.000000     8.368000
  CG2DC2   CG2D1O    NG2D1     HGA4     2     0.000000   203.426080
  CG2DC2   CG2DC1    NG2D1     HGA4     2     0.000000   259.324320
  CG2DC2   CG2R61    NG2D1     HGA4     2     0.000000   251.040000
  CG2DC2   CG2DC1    NG2P1    HGR52     2     0.000000   108.784000
   CG2N1    NG321    NG321    NG2D1     2     0.000000   711.280000
   CG2N1    NG2P1    NG2P1    NG2P1     2     0.000000   334.720000
   CG2N1    NG2P1    NG2P1   NG2R61     2     0.000000   561.994880
   CG2N1    NG2D1    NG2P1    NG311     2     0.000000   776.215680
   CG2N1    NG2D1    NG2P1    NG321     2     0.000000   134.808480
   CG2N1    NG2D1    NG311    NG321     2     0.000000   711.280000
   CG2N2    NG2P1    NG2P1   CG2DC1     2     0.000000    13.890880
   CG2N2    NG2P1    NG2P1    CG2N2     2     0.000000     5.439200
   CG2N2    NG2P1    NG2P1   CG2R51     2     0.000000   217.568000
   CG2N2    NG2P1    NG2P1   CG2R53     2     0.000000   217.568000
   CG2N2    NG2P1    NG2P1   CG2R61     2     0.000000   251.040000
   CG2N2    NG2P1    NG2P1   CG2R62     2     0.000000   251.040000
   CG2N2    NG2P1    NG2P1    CG301     2     0.000000   251.040000
   CG2N2    NG2P1    NG2P1    CG311     2     0.000000   251.040000
   CG2N2    NG2P1    NG2P1    CG321     2     0.000000   251.040000
   CG2N2    NG2D1    NG2D1    CG331     2     0.000000   238.320640
   CG2N2    NG2P1    NG2P1    CG331     2     0.000000   251.040000
   CG2N2    CG2N2    NG2D1    NG311     2     0.000000   302.084800
   CG2N2   CG2R61    NG2D1    NG321     2     0.000000   673.372960
   CG2N2    NG2D1    NG301    OG301     2     0.000000   422.332960
   CG2N2    NG2D1    NG2D1    SG311     2     0.000000   251.040000
   CG2N2    NG2D1    NG311    SG311     2     0.000000   267.776000
   CG2N2    NG2D1    NG321    SG311     2     0.000000   267.776000
   CG2N2    NG2D1    NG3N1    SG311     2     0.000000   267.776000
   CG2N2    NG2P1    NG2P1    SG311     2     0.000000   318.904480
   CG2N2    NG2D1    NG2P1     HGA4     2     0.000000   499.151200
   CG2N2    NG2P1   NG2R52    HGR52     2     0.000000    92.801120
   CG2O1   CG2D1O    NG2S1    OG2D1     2     0.000000  1004.160000
   CG2O1   CG2DC1    NG2D1    OG2D1     2     0.000000  1004.160000
   CG2O1   CG2DC1    NG2S0    OG2D1     2     0.000000  1004.160000
   CG2O1   CG2DC1    NG2S1    OG2D1     2     0.000000  1004.160000
   CG2O1   CG2DC1    NG2S2    OG2D1     2     0.000000  1004.160000
   CG2O1   CG2DC2    NG2S1    OG2D1     2     0.000000  1004.160000
   CG2O1   CG2DC2    NG2S2    OG2D1     2     0.000000  1004.160000
   CG2O1    CG2O1    NG2S0    OG2D1     2     0.000000   643.164480
   CG2O1    CG2O1    NG2S1    OG2D1     2     0.000000  1004.160000
   CG2O1   CG2R51    NG2S1    OG2D1     2     0.000000   585.760000
   CG2O1   CG2R51    NG2S2    OG2D1     2     0.000000   585.760000
   CG2O1   CG2R52    NG2S1    OG2D1     2     0.000000   585.760000
   CG2O1   CG2R61    NG2D1    OG2D1     2     0.000000  1004.160000
   CG2O1   CG2R61    NG2S0    OG2D1     2     0.000000  1004.160000
   CG2O1   CG2R61    NG2S1    OG2D1     2     0.000000  1004.160000
   CG2O1   CG2R61    NG2S2    OG2D1     2     0.000000  1004.160000
   CG2O1   CG2R62    NG2D1    OG2D1     2     0.000000  1004.160000
   CG2O1   CG2R62    NG2S2    OG2D1     2     0.000000  1004.160000
   CG2O1   CG2R64    NG2S2    OG2D1     2     0.000000  1004.160000
   CG2O1    CG301    NG2S0    OG2D1     2     0.000000  1004.160000
   CG2O1    CG301    NG2S1    OG2D1     2     0.000000  1004.160000
   CG2O1    CG301    NG2S2    OG2D1     2     0.000000  1004.160000
   CG2O1    CG311    NG2D1    OG2D1     2     0.000000   368.208736
   CG2O1    CG311   NG2R61    OG2D1     2     0.000000  1004.160000
   CG2O1    CG311    NG2S0    OG2D1     2     0.000000  1004.160000
   CG2O1    CG311    NG2S1    OG2D1     2     0.000000  1004.160000
   CG2O1    CG311    NG2S2    OG2D1     2     0.000000  1004.160000
   CG2O1    CG311    NG311    OG2D1     2     0.000000  1004.160000
   CG2O1    CG312    NG2S1    OG2D1     2     0.000000  1004.160000
   CG2O1    CG314    NG2S0    OG2D1     2     0.000000  1004.160000
   CG2O1    CG314    NG2S1    OG2D1     2     0.000000  1004.160000
   CG2O1    CG314    NG2S2    OG2D1     2     0.000000  1004.160000
   CG2O1    CG321    NG2S0    OG2D1     2     0.000000  1004.160000
   CG2O1    CG321    NG2S1    OG2D1     2     0.000000  1004.160000
   CG2O1    CG321    NG2S2    OG2D1     2     0.000000  1004.160000
   CG2O1    CG322    NG2S1    OG2D1     2     0.000000  1004.160000
   CG2O1    CG324    NG2D1    OG2D1     2     0.000000    46.944480
   CG2O1    CG324    NG2S0    OG2D1     2     0.000000  1004.160000
   CG2O1    CG331    NG2D1    OG2D1     2     0.000000   474.044690
   CG2O1    CG331   NG2R52    OG2D1     2     0.000000   474.047200
   CG2O1    CG331   NG2R53    OG2D1     2     0.000000  1004.160000
   CG2O1    CG331    NG2S0    OG2D1     2     0.000000   594.128000
   CG2O1    CG331    NG2S1    OG2D1     2     0.000000  1004.160000
   CG2O1    CG331    NG2S2    OG2D1     2     0.000000  1004.160000
   CG2O1   CG3C31    NG2S0    OG2D1     2     0.000000  1004.160000
   CG2O1   CG3C41    NG2S0    OG2D1     2     0.000000  1004.160000
   CG2O1   CG3C41    NG2S2    OG2D1     2     0.000000  1004.160000
   CG2O1   CG3C50    NG2S0    OG2D1     2     0.000000  1004.160000
   CG2O1   CG3C50    NG2S1    OG2D1     2     0.000000  1004.160000
   CG2O1   CG3C51    NG2S0    OG2D1     2     0.000000  1004.160000
   CG2O1   CG3C51    NG2S1    OG2D1     2     0.000000  1004.160000
   CG2O1   CG3C51    NG2S2    OG2D1     2     0.000000  1004.160000
   CG2O1   CG3C53    NG2S0    OG2D1     2     0.000000  1004.160000
   CG2O1   CG3C53    NG2S1    OG2D1     2     0.000000  1004.160000
   CG2O1   CG3C53    NG2S2    OG2D1     2     0.000000  1004.160000
   CG2O1   CG3RC1    NG2S0    OG2D1     2     0.000000  1004.160000
   CG2O1   CG3RC1    NG2S1    OG2D1     2     0.000000  1004.160000
   CG2O1   CG2D1O    NG2D1    SG2D1     2     0.000000   604.504320
   CG2O1   CG2R61    NG2S1    SG2D1     2     0.000000   589.525600
   CG2O1   CG2R61    NG2S2    SG2D1     2     0.000000   656.302240
   CG2O1    CG301    NG2S2    SG2D1     2     0.000000   555.467840
   CG2O1    CG321    NG2S0    SG2D1     2     0.000000   555.467840
   CG2O1    CG321    NG2S1    SG2D1     2     0.000000   555.466166
   CG2O1   NG2R51    OG2D1    HGR52     2     0.000000   429.780480
   CG2O1    NG2S0    OG2D1    HGR52     2     0.000000   418.400000
   CG2O1    NG2S1    OG2D1    HGR52     2     0.000000   552.288000
   CG2O1    NG2S2    OG2D1    HGR52     2     0.000000   552.288000
   CG2O2   CG2DC1    OG2D1    OG302     2     0.000000   451.788320
   CG2O2   CG2R61    OG2D1    OG302     2     0.000000   602.496000
   CG2O2    CG311    OG2D1    OG302     2     0.000000   518.816000
   CG2O2    CG321    OG2D1    OG302     2     0.000000   518.816000
   CG2O2    CG331    OG2D1    OG302     2     0.000000   518.816000
   CG2O2    CG321    OG2D1    OG303     2     0.000000   518.816000
   CG2O2   CG2DC1    OG2D1    OG311     2     0.000000   451.748990
   CG2O2   CG2R51    OG2D1    OG311     2     0.000000   443.504000
   CG2O2   CG2R52    OG2D1    OG311     2     0.000000   443.504000
   CG2O2   CG2R53    OG2D1    OG311     2     0.000000   443.504000
   CG2O2   CG2R61    OG2D1    OG311     2     0.000000   443.504000
   CG2O2   CG2R62    OG2D1    OG311     2     0.000000   443.504000
   CG2O2   CG2R64    OG2D1    OG311     2     0.000000   443.504000
   CG2O2    CG301    OG2D1    OG311     2     0.000000   543.920000
   CG2O2    CG311    OG2D1    OG311     2     0.000000   543.920000
   CG2O2    CG321    OG2D1    OG311     2     0.000000   543.920000
   CG2O2    CG331    OG2D1    OG311     2     0.000000   543.920000
   CG2O2   CG3C31    OG2D1    OG311     2     0.000000   502.749440
   CG2O2   CG3C41    OG2D1    OG311     2     0.000000   486.599200
   CG2O2   CG3C50    OG2D1    OG311     2     0.000000   543.920000
   CG2O2   CG3C51    OG2D1    OG311     2     0.000000   543.920000
   CG2O2   CG3RC1    OG2D1    OG311     2     0.000000   543.920000
   CG2O2   CG2R61    OG2D1   OG3R60     2     0.000000   602.496000
   CG2O2   CG2R61    OG2D1    SG311     2     0.000000   517.888826
   CG2O2   CG2R61    SG2D1    SG311     2     0.000000   317.147200
   CG2O2   CG2R62    SG2D1    SG311     2     0.000000   376.643680
   CG2O2    CG321    OG2D1    SG311     2     0.000000   554.749029
   CG2O2    CG331    OG2D1    SG311     2     0.000000   408.057989
   CG2O2    OG2D1    OG311    HGR52     2     0.000000   627.600000
   CG2O3    OG2D2    OG2D2   CG2D1O     2     0.000000   803.328000
   CG2O3    OG2D2    OG2D2   CG2DC1     2     0.000000   803.328000
   CG2O3    OG2D2    OG2D2   CG2DC2     2     0.000000   803.328000
   CG2O3    OG2D2    OG2D2    CG2O5     2     0.000000   803.328000
   CG2O3    OG2D2    OG2D2   CG2R51     2     0.000000   803.328000
   CG2O3    OG2D2    OG2D2   CG2R52     2     0.000000   803.328000
   CG2O3    OG2D2    OG2D2   CG2R53     2     0.000000   803.328000
   CG2O3    OG2D2    OG2D2   CG2R61     2     0.000000   803.328000
   CG2O3    OG2D2    OG2D2   CG2R62     2     0.000000   803.328000
   CG2O3    OG2D2    OG2D2   CG2R64     2     0.000000   803.328000
   CG2O3    OG2D2    OG2D2    CG301     2     0.000000   803.328000
   CG2O3    OG2D2    OG2D2    CG311     2     0.000000   803.328000
   CG2O3    OG2D2    OG2D2    CG314     2     0.000000   803.328000
   CG2O3    OG2D2    OG2D2    CG321     2     0.000000   803.328000
   CG2O3    OG2D2    OG2D2    CG322     2     0.000000   803.328000
   CG2O3    OG2D2    OG2D2    CG324     2     0.000000   803.328000
   CG2O3    OG2D2    OG2D2    CG331     2     0.000000   803.328000
   CG2O3    OG2D2    OG2D2   CG3C31     2     0.000000   586.680480
   CG2O3    OG2D2    OG2D2   CG3C41     2     0.000000   434.048160
   CG2O3    OG2D2    OG2D2   CG3C50     2     0.000000   803.328000
   CG2O3    OG2D2    OG2D2   CG3C51     2     0.000000   803.328000
   CG2O3    OG2D2    OG2D2   CG3C53     2     0.000000   803.328000
   CG2O3    OG2D2    OG2D2   CG3RC1     2     0.000000   803.328000
   CG2O3    OG2D2    OG2D2    NG2S0     2     0.000000   460.993120
   CG2O3    OG2D2    OG2D2    NG2S1     2     0.000000   461.029102
   CG2O3    OG2D2    OG2D2    HGR52     2     0.000000   560.656000
   CG2O4    CG2O4   CG2RC0    OG2D3     2     0.000000   602.496000
   CG2O4   CG3C41   CG3C41    OG2D3     2     0.000000   167.360000
   CG2O4   CG3C41   CG3RC1    OG2D3     2     0.000000   167.360000
   CG2O4   CG3C41    OG2D1   OG3C51     2     0.000000   502.080000
   CG2O4   CG2DC1    OG2D1    HGR52     2     0.000000   117.152000
   CG2O4   CG2DC2    OG2D1    HGR52     2     0.000000   117.152000
   CG2O4    CG2O5    SG3O3    HGR52     2     0.000000     5.857600
   CG2O4   CG2R51    OG2D1    HGR52     2     0.000000   443.504000
   CG2O4   CG2R52    OG2D1    HGR52     2     0.000000   443.504000
   CG2O4   CG2R53    OG2D1    HGR52     2     0.000000   443.504000
   CG2O4   CG2R61    OG2D1    HGR52     2     0.000000   443.504000
   CG2O4   CG2R62    OG2D1    HGR52     2     0.000000   443.504000
   CG2O4    CG311    OG2D1    HGR52     2     0.000000   418.400000
   CG2O4    CG321    OG2D1    HGR52     2     0.000000   418.400000
   CG2O4    CG331    OG2D1    HGR52     2     0.000000   418.400000
   CG2O5   CG2D1O   CG2DC1    OG2D3     2     0.000000   414.360766
   CG2O5   CG2D1O   CG2R61    OG2D3     2     0.000000   477.812800
   CG2O5   CG2D1O    CG321    OG2D3     2     0.000000   736.384000
   CG2O5   CG2DC1   CG2DC1    OG2D3     2     0.000000   341.872130
   CG2O5   CG2DC1    CG2O5    OG2D3     2     0.000000   602.496000
   CG2O5   CG2DC1   CG2R61    OG2D3     2     0.000000   574.630560
   CG2O5   CG2DC1    CG321    OG2D3     2     0.000000   736.384000
   CG2O5   CG2DC1    CG331    OG2D3     2     0.000000   736.384000
   CG2O5   CG2DC2   CG2DC2    OG2D3     2     0.000000   731.085382
   CG2O5   CG2DC2   CG2R51    OG2D3     2     0.000000   574.623029
   CG2O5   CG2DC2    CG331    OG2D3     2     0.000000   736.384000
   CG2O5    CG2O3   CG2R61    OG2D3     2     0.000000   602.496000
   CG2O5    CG2O3    CG321    OG2D3     2     0.000000   736.384000
   CG2O5    CG2O4    CG321    OG2D3     2     0.000000   646.009600
   CG2O5    CG2O5   CG2R51    OG2D3     2     0.000000   602.496000
   CG2O5    CG2O5    CG311    OG2D3     2     0.000000   738.894400
   CG2O5    CG2O5    CG321    OG2D3     2     0.000000   663.833440
   CG2O5    CG2O5   CG3RC1    OG2D3     2     0.000000   736.384000
   CG2O5   CG2R51   CG2R61    OG2D3     2     0.000000   778.558720
   CG2O5   CG2R51    CG321    OG2D3     2     0.000000   602.496000
   CG2O5   CG2R51    CG331    OG2D3     2     0.000000   502.080000
   CG2O5   CG2R52    CG321    OG2D3     2     0.000000   602.496000
   CG2O5   CG2R53    CG331    OG2D3     2     0.000000   502.080000
   CG2O5   CG2R61   CG2R61    OG2D3     2     0.000000   778.554536
   CG2O5   CG2R61    CG311    OG2D3     2     0.000000   602.496000
   CG2O5   CG2R61    CG321    OG2D3     2     0.000000   602.496000
   CG2O5   CG2R61    CG331    OG2D3     2     0.000000   502.080000
   CG2O5   CG2R61   CG3RC1    OG2D3     2     0.000000   602.496000
   CG2O5   CG2R62    CG331    OG2D3     2     0.000000   502.080000
   CG2O5    CG301    CG301    OG2D3     2     0.000000   585.760000
   CG2O5    CG301    CG311    OG2D3     2     0.000000   585.760000
   CG2O5    CG301    CG321    OG2D3     2     0.000000   585.760000
   CG2O5    CG301    CG331    OG2D3     2     0.000000   585.760000
   CG2O5    CG301   CG3C51    OG2D3     2     0.000000   585.760000
   CG2O5    CG311    CG311    OG2D3     2     0.000000   585.760000
   CG2O5    CG311    CG321    OG2D3     2     0.000000   585.760000
   CG2O5    CG311    CG331    OG2D3     2     0.000000   585.760000
   CG2O5    CG312    CG321    OG2D3     2     0.000000   585.760000
   CG2O5    CG314    CG321    OG2D3     2     0.000000   585.760000
   CG2O5    CG321    CG321    OG2D3     2     0.000000   585.760000
   CG2O5    CG321    CG331    OG2D3     2     0.000000   585.760000
   CG2O5    CG321   CG3C31    OG2D3     2     0.000000   584.421120
   CG2O5    CG321   CG3RC1    OG2D3     2     0.000000   585.760000
   CG2O5    CG322    CG324    OG2D3     2     0.000000   585.760000
   CG2O5    CG331    CG331    OG2D3     2     0.000000   585.760000
   CG2O5   CG3C50   CG3C52    OG2D3     2     0.000000  1369.757920
   CG2O5   CG3C51   CG3C51    OG2D3     2     0.000000   707.096000
   CG2O5   CG3C51   CG3C52    OG2D3     2     0.000000   997.967680
   CG2O5   CG3C52   CG3C52    OG2D3     2     0.000000  1115.203360
   CG2O5   CG3RC1   CG3RC1    OG2D3     2     0.000000   884.916000
   CG2O5   CG2DC1    CG311    SG2D1     2     0.000000   347.523040
   CG2O5   CG2DC1   CG2DC1    SG3O3     2     0.000000   140.749760
   CG2O6    NG2D1    NG2D1    OG2D1     2     0.000000   705.422400
   CG2O6    NG2D1    NG2S1    OG2D1     2     0.000000   820.064000
   CG2O6   NG2R51    NG2S1    OG2D1     2     0.000000   502.080000
   CG2O6   NG2R52    NG2S1    OG2D1     2     0.000000   820.064000
   CG2O6    NG2S0    NG2S0    OG2D1     2     0.000000   723.832000
   CG2O6    NG2S0    NG2S1    OG2D1     2     0.000000   723.832000
   CG2O6    NG2S0    NG2S2    OG2D1     2     0.000000   723.832000
   CG2O6    NG2S1    NG2S1    OG2D1     2     0.000000   669.440000
   CG2O6    NG2S1    NG2S2    OG2D1     2     0.000000   669.440000
   CG2O6    NG2S2    NG2S2    OG2D1     2     0.000000   669.440000
   CG2O6    OG302    OG302    OG2D1     2     0.000000  1213.360000
   CG2O6    OG2D2    OG2D2    OG2D2     2     0.000000   895.376000
   CG2O6    NG2S0    OG2D1    OG302     2     0.000000   518.816000
   CG2O6    NG2S1    OG2D1    OG302     2     0.000000   518.816000
   CG2O6    NG2S0    OG2D1    OG311     2     0.000000   518.816000
   CG2O6    OG2D2    OG2D2    OG311     2     0.000000   711.280000
   CG2O6    NG2S0    OG2D1   OG3R60     2     0.000000   518.816000
   CG2O6    NG2S1    OG2D1   OG3R60     2     0.000000   518.816000
   CG2O6    NG2D1    NG2S1    SG2D1     2     0.000000   564.421600
   CG2O6   NG2R51    NG2S2    SG2D1     2     0.000000   370.367680
   CG2O6    NG2S0    NG2S1    SG2D1     2     0.000000   795.545760
   CG2O6    NG2S1    NG2S1    SG2D1     2     0.000000  1930.413920
   CG2O6    NG2S1    NG2S2    SG2D1     2     0.000000   696.199190
   CG2O6    NG2S1   OG3R60    SG2D1     2     0.000000   613.709120
   CG2O6    SG311    SG311    SG2D1     2     0.000000   669.440000
   CG2O6    NG2S0    SG2D1    SG311     2     0.000000   285.348800
   CG2O6    NG2S1    SG2D1    SG311     2     0.000000   363.840640
   CG2O6    NG2S2    OG2D1    SG311     2     0.000000   378.849485
  CG2R53   CG2RC0    NG2O1   NG2R50     2     0.000000     3.514560
  CG2R53    CG311   NG2R50   NG2R51     2     0.000000     8.368000
  CG2R53   NG2R50   NG2R51    NG301     2     0.000000   285.850880
  CG2R53   NG2R50   NG2R51    NG311     2     0.000000   451.872000
  CG2R53   CG251O   NG2R51    OG2D1     2     0.000000   753.120000
  CG2R53   CG251O   NG2R53    OG2D1     2     0.000000   753.120000
  CG2R53   CG252O   NG2R53    OG2D1     2     0.000000   753.120000
  CG2R53   CG25C1   NG2R51    OG2D1     2     0.000000   753.120000
  CG2R53   CG25C1   NG2R53    OG2D1     2     0.000000   753.120000
  CG2R53   CG25C2   NG2R51    OG2D1     2     0.000000   753.120000
  CG2R53   CG2R51   NG2R51    OG2D1     2     0.000000   753.120000
  CG2R53   CG2R51   NG2R53    OG2D1     2     0.000000   753.120000
  CG2R53   CG2R53   NG2R53    OG2D1     2     0.000000   941.567360
  CG2R53   CG2RC0   NG2R51    OG2D1     2     0.000000   753.120000
  CG2R53   CG3C31   NG2R53    OG2D1     2     0.000000   856.966880
  CG2R53   CG3C41   NG2R43    OG2D1     2     0.000000  1004.160000
  CG2R53   CG3C41   NG2R53    OG2D1     2     0.000000   744.333600
  CG2R53   CG3C50   NG2R50    OG2D1     2     0.000000   654.293920
  CG2R53   CG3C50   NG2R53    OG2D1     2     0.000000   920.480000
  CG2R53   CG3C51   NG2R53    OG2D1     2     0.000000   753.120000
  CG2R53   CG3C52   NG2R50    OG2D1     2     0.000000   606.847360
  CG2R53   CG3C52   NG2R53    OG2D1     2     0.000000   753.120000
  CG2R53   CG3C53   NG2R57    OG2D1     2     0.000000   753.120000
  CG2R53   CG3RC1   NG2R53    OG2D1     2     0.000000   932.446240
  CG2R53   NG2R50   NG2R50    OG2D1     2     0.000000   296.059840
  CG2R53   NG2R51   NG2RC0    OG2D1     2     0.000000   842.573920
  CG2R53   NG2R53   NG2R53    OG2D1     2     0.000000   753.120000
  CG2R53   CG2R51    OG2D1   OG2R50     2     0.000000   480.323200
  CG2R53   CG251O    OG2D1   OG3C51     2     0.000000   255.056640
  CG2R53   CG25C1    OG2D1   OG3C51     2     0.000000   239.324800
  CG2R53   CG2R51    OG2D1   OG3C51     2     0.000000   239.324800
  CG2R53   CG2R53    OG2D1   OG3C51     2     0.000000   319.490240
  CG2R53   CG2RC0    OG2D1   OG3C51     2     0.000000   239.324800
  CG2R53   CG3C50    OG2D1   OG3C51     2     0.000000   376.560000
  CG2R53   CG3C51    OG2D1   OG3C51     2     0.000000   376.560000
  CG2R53   CG3C52    OG2D1   OG3C51     2     0.000000   376.560000
  CG2R53   NG2R50    OG2D1   OG3C51     2     0.000000   302.335840
  CG2R53   NG2R53    OG2D1   OG3C51     2     0.000000   419.822560
  CG2R53   CG3C52   NG2R53    SG2D1     2     0.000000   636.135360
  CG2R53   NG2R50    NG3P0    SG2D1     2     0.000000   461.662560
  CG2R53   NG2R51   NG2R51    SG2D1     2     0.000000   675.046560
  CG2R53   NG2R53   NG2R53    SG2D1     2     0.000000   624.754880
  CG2R53   CG2R51    OG2D1   SG2R50     2     0.000000   299.239680
  CG2R53   NG2R50   NG2R61   SG2R50     2     0.000000     3.347200
  CG2R53   NG2R50    NG301   SG2R50     2     0.000000    82.843200
  CG2R53   NG2R50    NG311   SG2R50     2     0.000000   184.765440
  CG2R53   NG2R50    NG321   SG2R50     2     0.000000   108.616640
  CG2R53   CG3C51    SG2D1    SG311     2     0.000000   694.292960
  CG2R53   CG3C52    OG2D1    SG311     2     0.000000   333.548480
  CG2R53   NG2R53    OG2D1    SG311     2     0.000000   359.824000
  CG2R53   NG2R53    SG2D1    SG311     2     0.000000   359.824000
  CG2R57   CG2R51   NG2R50   NG2R57     2     0.000000    41.421600
  CG2R57   NG2R50   NG2R51   NG2R57     2     0.000000    28.200160
  CG2R57   NG2R50   NG2R57   OG2R50     2     0.000000   145.101120
  CG2R57   NG2R50   NG2R57    SG311     2     0.000000   261.081600
  CG2R61   CG2R61   CG2R61    NG2D1     2     0.000000    66.860320
  CG2R61   CG2R61    NG2D1   OG3R60     2     0.000000   141.251840
  CG2R62   CG2R62   NG2R51   NG2R61     2     0.000000    50.124320
  CG2R62   CG2R62   NG2R52   NG2R61     2     0.000000   452.206720
  CG2R62   CG2R62   NG2R60    NG2S3     2     0.000000   236.898080
  CG2R62   CG2R62   NG2R61    NG2S3     2     0.000000   434.048160
  CG2R62   CG2R62   NG2R61    NG3N1     2     0.000000   209.702080
  CG2R62   CG2R62   NG2R62    OG311     2     0.000000     0.000000
  CG2R62    CG2O3   CG2R62   OG3R60     2     0.000000   609.692480
  CG2R63   CG2R62   CG2R62    OG2D4     2     0.000000   125.520000
  CG2R63   CG2R62   NG2R61    OG2D4     2     0.000000   753.120000
  CG2R63   CG2R62   NG2R62    OG2D4     2     0.000000   502.080000
  CG2R63   CG2R62   NG2R67    OG2D4     2     0.000000   753.120000
  CG2R63   CG2R63   NG2R61    OG2D4     2     0.000000   753.120000
  CG2R63   CG2R64   NG2R61    OG2D4     2     0.000000   753.120000
  CG2R63   CG2R66   NG2R62    OG2D4     2     0.000000   502.080000
  CG2R63   CG2RC0   NG2R61    OG2D4     2     0.000000   753.120000
  CG2R63   CG2RC0   NG2R62    OG2D4     2     0.000000   502.080000
  CG2R63   CG2RC0   NG2RC0    OG2D4     2     0.000000   435.136000
  CG2R63    NG2P1   NG2R61    OG2D4     2     0.000000   652.704000
  CG2R63   NG2R52   NG2R61    OG2D4     2     0.000000   652.704000
  CG2R63   NG2R61   NG2R61    OG2D4     2     0.000000   753.120000
  CG2R63   NG2R61   NG2R62    OG2D4     2     0.000000   753.120000
  CG2R63   NG2R61   NG2R67    OG2D4     2     0.000000   753.120000
  CG2R63   CG2R62    OG2D4   OG3R60     2     0.000000   426.768000
  CG2R63   CG2R64    OG2D4   OG3R60     2     0.000000   426.768000
  CG2R63   CG2RC0    OG2D4   OG3R60     2     0.000000   426.768000
  CG2R63   NG2R61    OG2D4   OG3R60     2     0.000000   645.172800
  CG2R63   CG2R61   CG2R61    SG2D1     2     0.000000   246.939680
  CG2R63   CG2R61   NG2R61    SG2D1     2     0.000000   259.408000
  CG2R63   CG2R61   NG2R67    SG2D1     2     0.000000   326.352000
  CG2R63   CG2R61   OG3R60    SG2D1     2     0.000000   424.676000
  CG2R63   CG2R62   NG2R61    SG2D1     2     0.000000   326.352000
  CG2R63   CG2R62   NG2R67    SG2D1     2     0.000000   326.352000
  CG2R63   CG2R63   NG2R61    SG2D1     2     0.000000   326.352000
  CG2R63   CG2R64   NG2R61    SG2D1     2     0.000000   326.352000
  CG2R63   CG2R66   NG2R61    SG2D1     2     0.000000   259.408000
  CG2R63   CG2RC0   NG2R61    SG2D1     2     0.000000   259.408000
  CG2R63   NG2R61   NG2R61    SG2D1     2     0.000000   702.912000
  CG2R63   NG2R61   NG2R62    SG2D1     2     0.000000   485.344000
  CG2R63   NG2R61   NG2R67    SG2D1     2     0.000000   702.912000
  CG2R63   NG2R62   NG2RC0    SG2D1     2     0.000000   485.344000
  CG2R63   NG2R61    OG2D4    SG311     2     0.000000   474.130880
  CG2R63   NG2R61   NG2R61    SEGD1     2     0.000000   485.344000
  CG2R64    NG2P1    NG2P1   CG2R61     2     0.000000   435.136000
  CG2R64    NG2P1    NG2P1   CG2R62     2     0.000000   435.136000
  CG2R64    NG2P1    NG2P1   CG2RC0     2     0.000000   435.136000
  CG2R64   CG2R61    NG2D1    NG2P1     2     0.000000   234.304000
  CG2R64    NG2P1    NG2P1    NG2P1     2     0.000000   393.296000
  CG2R64     HGP2     HGP2    NG2P1     2     0.000000    -8.368000
  CG2R64   CG2R61    NG2D1   NG2R60     2     0.000000   351.456000
  CG2R64   CG2R61    NG2O1   NG2R60     2     0.000000     1.255200
  CG2R64   CG2R61   NG2R51   NG2R60     2     0.000000   231.626240
  CG2R64   CG2R61   NG2R53   NG2R60     2     0.000000   253.383040
  CG2R64   CG2RC0   NG2R51   NG2R60     2     0.000000   350.368160
  CG2R64   CG2R61    NG2D1   NG2R61     2     0.000000   351.456000
  CG2R64   CG2R61    NG2P1   NG2R61     2     0.000000   351.456000
  CG2R64   CG2R62    NG2D1   NG2R61     2     0.000000   351.456000
  CG2R64   CG2RC0    NG2D1   NG2R61     2     0.000000   351.456000
  CG2R64   CG2R61    NG2D1   NG2R62     2     0.000000   351.456000
  CG2R64   CG2R61    NG2P1   NG2R62     2     0.000000   351.456000
  CG2R64   CG2R61   NG2R51   NG2R62     2     0.000000    94.976800
  CG2R64   CG2R66   NG2R51   NG2R62     2     0.000000   124.264800
  CG2R64   CG2RC0    NG2D1   NG2R62     2     0.000000   351.456000
  CG2R64    NG2D1   NG2R61   NG2R62     2     0.000000    88.031360
  CG2R64    NG2P1   NG2R61   NG2R62     2     0.000000   547.685600
  CG2R64   CG2R61    NG2D1   NG2R67     2     0.000000   351.456000
  CG2R64   CG2R61   NG2R62    NG2S0     2     0.000000   257.734400
  CG2R64   CG2RC0   NG2R62    NG2S0     2     0.000000   184.096000
  CG2R64   CG2R61   NG2R60    NG2S1     2     0.000000   158.992000
  CG2R64   CG2R62   NG2R62    NG2S1     2     0.000000   158.992000
  CG2R64   CG2RC0   NG2R62    NG2S1     2     0.000000   334.720000
  CG2R64   CG2R61   NG2R60    NG2S3     2     0.000000   502.080000
  CG2R64   CG2R61   NG2R62    NG2S3     2     0.000000   502.080000
  CG2R64   CG2R62   NG2R62    NG2S3     2     0.000000   502.080000
  CG2R64   CG2R63   NG2R60    NG2S3     2     0.000000   502.080000
  CG2R64   CG2R64   NG2R60    NG2S3     2     0.000000   502.080000
  CG2R64   CG2R67   NG2R62    NG2S3     2     0.000000   502.080000
  CG2R64   CG2RC0   NG2R62    NG2S3     2     0.000000   334.720000
  CG2R64   NG2R61   NG2R62    NG2S3     2     0.000000   334.720000
  CG2R64   NG2R62   NG2R62    NG2S3     2     0.000000   334.720000
  CG2R64   CG2R61   NG2R60    NG301     2     0.000000   334.720000
  CG2R64   CG2R61   NG2R62    NG301     2     0.000000   334.720000
  CG2R64   CG2R62   NG2R62    NG301     2     0.000000   334.720000
  CG2R64   CG2R63   NG2R60    NG301     2     0.000000   334.720000
  CG2R64   CG2RC0   NG2R60    NG301     2     0.000000   334.720000
  CG2R64   CG2RC0   NG2R62    NG301     2     0.000000   334.720000
  CG2R64   NG2R61   NG2R62    NG301     2     0.000000   334.720000
  CG2R64   CG2R62   NG2R62    NG311     2     0.000000   401.664000
  CG2R64   CG2R63   NG2R60    NG311     2     0.000000   401.664000
  CG2R64   CG2RC0   NG2R62    NG311     2     0.000000   418.400000
  CG2R64   NG2R61   NG2R62    NG311     2     0.000000   334.720000
  CG2R64   CG2R61   NG2R60   NG3C51     2     0.000000   401.664000
  CG2R64   CG2R63   NG2R60   NG3C51     2     0.000000   401.664000
  CG2R64   CG2R64   NG2R60   NG3C51     2     0.000000   401.664000
  CG2R64   NG2R61   NG2R62   NG3C51     2     0.000000   334.720000
  CG2R64   NG2R62   NG2R62   NG3C51     2     0.000000   710.694240
  CG2R64   CG2R61   NG2R62    NG3N1     2     0.000000   401.664000
  CG2R64   CG2R66   NG2R60    NG3N1     2     0.000000   401.664000
  CG2R64   NG2R60    NG2S3   OG3R60     2     0.000000   713.874080
  CG2R64    NG2D1   NG2R61    SG311     2     0.000000   203.426080
  CG2R71    NG2P1    NG2P1   CG2R61     2     0.000000   316.310400
  CG2RC0   CG2DC1   CG2RC0    NG2D1     2     0.000000    66.860320
  CG2RC0    CG2O4   CG2RC0    NG311     2     0.000000   609.692480
  CG2RC0   CG2RC0    NG2D1     HGA4     2     0.000000   141.251840
   NG2O1    OG2N1    OG2N1    CG324     2     0.000000   448.524800
   NG2O1    OG2N1    OG2N1    CG334     2     0.000000   425.094400
   NG2S3     HGP4     HGP4   CG2R61     2     0.000000   -20.920000
   NG2S3     HGP4     HGP4   CG2R62     2     0.000000   -20.920000
   NG2S3     HGP4     HGP4   CG2R64     2     0.000000    75.312000
   NG2S3     HGP4     HGP4   NG2R61     2     0.000000     1.087840
   CC2O1    CC331    NC2D1    OC2D1     2     0.000000  1004.160000
   NC2D1    CC2O1   CC3161     HCP1     2     0.000000   167.360000
   NC2D1    CC2O1   CC3062     HCP1     2     0.000000   167.360000
   CC2O2    CC311    OC2D2    OC2D2     2     0.000000   803.328000
   CC2O2    CC301    OC2D2    OC2D2     2     0.000000   803.328000
   CC2O2   CC3163    OC2D2    OC2D2     2     0.000000   803.328000
   CC2O2   CC3062    OC2D2    OC2D2     2     0.000000   803.328000
   CC2O2    CC321    OC2D2    OC2D2     2     0.000000   803.328000
   NC2D1    CC2O1    CC331     HCP1     2     0.000000   167.360000
   NC2D1    CC2O1    CC311     HCP1     2     0.000000   167.360000
   CC2O4    CC331    OC2D4     HCR1     2     0.000000   418.400000
   CC2O4    CC312    OC2D4     HCR1     2     0.000000   418.400000
   OC2D3    CC331    CC331    CC2O3     2     0.000000   585.760000
   OC2D3    CC312    CC322    CC2O3     2     0.000000   585.760000
    NN2B      CN4      CN5      HN2     2     0.000000    58.576000
     NN1      CN2      HN1      HN1     2     0.000000    50.208000
     CN1     NN2G     CN5G      ON1     2     0.000000   753.120000
    CN1T     NN2B     NN2U      ON1     2     0.000000   920.480000
     CN1     NN2U     CN3T      ON1     2     0.000000   753.120000
     CN2     NN3G     NN2G      NN1     2     0.000000   334.720000
     CN2     NN3A      CN5      NN1     2     0.000000   334.720000
     CN2      NN3      CN3      NN1     2     0.000000   502.080000
    HEL2     HEL2     CEL2     CEL2     2     0.000000    25.104000
     CPB      CPA      NPH      CPA     2     0.000000   174.054400
      HA      CPA      CPA      CPM     2     0.000000   246.019200
     NPH      CPA      CPA       FE     2     0.000000  1149.763200
     NPH      CPA      CPB      CPB     2     0.000000   339.740800
     NPH      CPA      CPM      CPA     2     0.000000   153.134400
     NPH      CPM      CPB      CPA     2     0.000000   273.633600
      NY       CA       CY      CPT     2     0.000000   836.800000
       O       HA      NH2       CC     2     0.000000   376.560000
       O      NH2       HA       CC     2     0.000000   376.560000
       C      CT1        O      OSL     2     0.000000   518.816000
       C     CTL2        O      OSL     2     0.000000   518.816000
     NR1     CPH1     CPH2     CN7B     2     0.000000     5.020800
     NR1     CPH2     CPH1     CN7B     2     0.000000     5.020800
   NC2D1    CC2O1   CC311D     HCP1     2     0.000000   167.360000
   NC2D1    CC2O1   CC3162     HCP1     2     0.000000   167.360000
   CC2O1    NC2D1    CC321    OC2D1     2     0.000000   376.560000
   CC2O1    CC321    NC2D1    OC2D1     2     0.000000   376.560000
       C      CT3        N        O     2     0.000000   594.128000
   CG2O1    CG321      NH1    OG2D1     2     0.000000  1004.160000
   CG2O1   CG2D1O      NH1    OG2D1     2     0.000000  1004.160000
   CG2O1   CG3C51      NH1    OG2D1     2     0.000000  1004.160000
   CG2O1    CG311      NH1    OG2D1     2     0.000000  1004.160000
   CG2O1   CG3C50      NH1    OG2D1     2     0.000000  1004.160000
   CG2O1    CG321      NH1    SG2D1     2     0.000000   555.466166
   CG2O1   CG3C51        N    OG2D1     2     0.000000  1004.160000
       N    CG2O1      CP1      CP3     2     0.000000     0.000000
   CG2O1    CG311        N    OG2D1     2     0.000000  1004.160000
   CG2O1    CG321        N    OG2D1     2     0.000000  1004.160000
   CG2O1   CG2D1O        N    OG2D1     2     0.000000  1004.160000
   CG2O1    CG321        N    SG2D1     2     0.000000  1004.160000
   CG2O1   CG3C50        N    OG2D1     2     0.000000  1004.160000
   NG2S0        C   CG3C51   CG3C52     2     0.000000     0.000000
   NG2S0        C   CG3C50   CG3C52     2     0.000000     0.000000
   NG2S1        C    CG311     HGP1     2     0.000000   167.360000
   NG2S1        C   CG2D1O     HGP1     2     0.000000   167.360000
   NG2S1        C   CG3C51     HGP1     2     0.000000   167.360000
   NG2S0        C    CG321    CG321     2     0.000000     0.000000
   NG2S0        C    CG311    CG331     2     0.000000     0.000000
    NN2G      CN4      CN1      HN2     2     0.000000     6.694400
     CN4     NN2G     NN3I      HN3     2     0.000000   326.352000
     CN1     NN3G     CN5G      ON5     2     0.000000   460.240000
     CN2     NN2C      CN3     NN1C     2     0.000000   753.120000
    NN2G      CN1      CN2      HN2     2   180.000000     0.000000
       C        O      CT2      NH1     2     0.000000  1004.160000
      CC        O      CT2        N     2     0.000000  1004.160000
       N      CT2      CT2       CC     2     0.000000     0.000000
       N      CT2     CT2P       CC     2     0.000000     0.000000
       O     CTD1      NH2       CC     2     0.000000   376.560000
       O      NH2     CTD1       CC     2     0.000000   376.560000
       N        C     CPD1      CP3     2     0.000000     0.000000
       O     CPD1      NH2       CC     2     0.000000   376.560000
       O      NH2     CPD1       CC     2     0.000000   376.560000
      CD     CC1A        O      HR1     2     0.000000   117.152000
       C        O      NH1     CTL2     2     0.000000   803.328000
     CN3     CN3C      CN8      HN6     2     0.000000   125.520000
     HN2      CN3     CN3B      NN2     2     0.000000   418.400000
     HN1      HN1     CN1A      NN1     2     0.000000   -41.840000
     HN8      CN3      CN3      CN8     2     0.000000   150.624000
      CD       OC       OC       OC     2     0.000000   895.376000
     NC2        X        X        C     2     0.000000   376.560000
     NC2        X        X       HC     2     0.000000   -16.736000
     NH1        X        X        H     2     0.000000   167.360000
     NH2        X        X        H     2     0.000000    33.472000
       O        X        X        C     2     0.000000  1004.160000
      OB        X        X       CD     2     0.000000   836.800000
      OC        X        X       CC     2     0.000000   803.328000
      CC        X        X      CT1     2     0.000000   803.328000
      CC        X        X      CT2     2     0.000000   803.328000
      CC        X        X      CT3     2     0.000000   803.328000
     HN2        X        X      NN2     2     0.000000     8.368000
     HN1        X        X      NN1     2     0.000000    33.472000
     CN1        X        X      ON1     2     0.000000   753.120000
    CN1T        X        X      ON1     2     0.000000   753.120000
     CN1        X        X     ON1C     2     0.000000   669.440000
     CN2        X        X      NN1     2     0.000000   753.120000
     CN9        X        X     CN3T     2     0.000000   117.152000
     OBL        X        X       CL     2     0.000000   836.800000
     OCL        X        X       CL     2     0.000000   803.328000
     OCL        X        X      CCL     2     0.000000   803.328000
     CPB        X        X      CE1     2     0.000000   753.120000
     CT2        X        X      CPB     2     0.000000   753.120000
     CT3        X        X      CPB     2     0.000000   753.120000
     NNG        X        X      CNG     2     0.000000   334.720000
      CC        X        X     CTD1     2     0.000000   803.328000
      CL        X        X     CTL2     2     0.000000   803.328000
     NHL        X        X        H     2     0.000000   167.360000
    HN3B        X        X      CN3     2     0.000000   125.520000
    HN3B        X        X     CN3A     2     0.000000   108.784000
    HN3B        X        X     CN3B     2     0.000000   108.784000
     ON1        X        X     CN1A     2     0.000000   334.720000
     HN3        X        X     CN3C     2     0.000000   443.504000
     HN6        X        X     CN3C     2     0.000000   443.504000

[ implicit_genborn_params ]

; Atom type sar		st		pi		gbr		 hct
 NH1			0.155	1		1.028	0.17063  0.79 ; N
 N		0.155	1	1	0.155	 0.79 ; Proline backbone N
 NP		0.155	1	1	0.155	 0.79 ; Proline backbone N for Proline N-terminus
 H				0.1		1		1		0.115	 0.85 ; H
 CT1			0.180	1		1.276	0.190	 0.72 ; C
 HB1			0.1		1		1		0.125	 0.85 ; H
 CT3			0.200	1		0.880	0.190	 0.72 ; C
 HA				0.1		1		1		0.125	 0.85 ; H
 C				0.172	1		1.554	0.1875	 0.72 ; C
 O				0.150	1		0.926	0.148	 0.85 ; O
 CT2			0.190	1		1.045	0.190	 0.72 ; C
 NC2			0.160	1		1.215	0.17063  0.79 ; N
 HC				0.1		1		1		0.115	 0.85 ; H
 CC				0.172	1		1.554	0.1875	 0.72 ; C
 CD		0.172	1	1.554	0.1875	 0.72 ; carbonyl C (in COOH termini)
 NH2			0.160	1		1.215	0.17063  0.79 ; N
 OC				0.170	1		0.922	0.148	 0.85 ; O
 OB		0.170	1	0.922	0.148	 0.85 ; carbonyl O (in COOH termini)
 S				0.180	1		1.121	0.1775	 0.96 ; S
 SM				0.180	1		1.121	0.1775	 0.96 ; disulfide sulfur
 HS				0.1		1		1		0.125	 0.85 ; H
 NR1			0.155	1		1.028	0.17063  0.79 ; N
 CPH1			0.172	1		1.554	0.1875	 0.72 ; C
 CPH2			0.180	1		1.073	0.1875	 0.72 ; C
 HR1			0.1		1		1		0.125	 0.85 ; H
 HR2			0.1		1		1		0.125	 0.85 ; H
 NR2			0.155	1		1.215	0.17063  0.79 ; N
 HR3			0.1		1		1		0.115	 0.85 ; H
 NR3			0.155	1		1.215	0.17063  0.79 ; N
 NH3			0.160	1		1.215	0.1625	 0.79 ; N
 HP				0.1		1		1		0.125	 0.85 ; H
 CP3			0.190	1		1.045	0.190	 0.72 ; C
 CP1			0.180	1		1.276	0.190	 0.72 ; C
 CP2			0.190	1		1.045	0.190	 0.72 ; C
 OH1			0.152	1		1.080	0.1535	 0.85 ; O
 CY				0.172	0.012	1.554	0.1875	 0.72 ; C
 CA				0.180	1		1.073	0.1875	 0.72 ; C
 HP				0.1		1		1		0.125	 0.85 ; H
 NY				0.155	1		1.028	0.17063  0.79 ; N
 CPT			0.172	0.012	1.554	0.1875	 0.72 ; C	  
 MNH3		0	0	0	0	 0	  ; vsite (rigid tetrahedrical NH3 group)
 MNH2		0	0	0	0	 0	  ; vsite
 MCH3		0	0	0	0	 0	  ; vsite (rigid CH3 group)
 MCH3S		0	0	0	0	 0	  ; vsite
 MW			0	0	0	0	 0	  ; vsite

; Allow the user to specify CHARMM36 parameters, instead
; Default behavior is to use CHARMM36m
; This force field generated by charmm2gmx.py from
; multiple charmm parameter files
; and multiple charmm topology files
[ cmaptypes ]

C NH1 CT1 C NH1 1 24 24\
0.54392000 3.22168000 4.05848000 5.23000000 8.87008000 11.38048000 8.74456000 7.48936000 3.26352000 -2.88696000\
4.18400000 -9.20480000 -20.20872000 -20.16688000 -20.54344000 -15.02056000 -11.58968000 -11.63152000 -10.25080000 -9.83240000\
-9.79056000 -6.35968000 -3.97480000 -0.16736000 -0.54392000 5.77392000 6.61072000 7.82408000 10.04160000 10.41816000\
10.20896000 8.07512000 4.56056000 2.67776000 1.08784000 -11.71520000 -16.77784000 -17.32176000 -14.30928000 -10.87840000\
-9.62320000 -6.27600000 -4.60240000 -3.59824000 -2.67776000 -0.87864000 -4.51872000 -4.68608000 0.33472000 5.94128000\
6.77808000 8.57720000 11.08760000 11.38048000 9.70688000 8.32616000 6.52704000 10.29264000 -0.96232000 -7.61488000\
-10.79472000 -12.59384000 -10.66920000 -7.90776000 -5.64840000 -3.05432000 0.29288000 -0.96232000 -3.22168000 -5.35552000\
-5.39736000 -3.43088000 3.89112000 6.35968000 9.37216000 10.66920000 13.01224000 12.21728000 10.29264000 9.16296000\
8.61904000 7.74040000 0.50208000 -4.93712000 -8.36800000 -9.53952000 -8.20064000 -5.60656000 -3.89112000 0.08368000\
1.29704000 -2.17568000 -4.81160000 -4.10032000 -2.38488000 -1.84096000 5.69024000 8.20064000 11.29680000 12.71936000\
15.48080000 14.89504000 11.04576000 11.58968000 11.38048000 6.81992000 2.97064000 -3.30536000 -8.87008000 -11.00392000\
-7.53120000 -1.79912000 -0.25104000 1.84096000 3.80744000 -2.30120000 -4.05848000 -3.59824000 -1.04600000 1.88280000\
8.57720000 10.62736000 11.79888000 12.92856000 14.10008000 14.85320000 12.84488000 12.13360000 12.38464000 8.87008000\
3.80744000 -3.43088000 -8.74456000 -9.37216000 -6.10864000 0.87864000 0.33472000 3.22168000 4.35136000 -0.50208000\
-1.33888000 -0.66944000 1.29704000 3.05432000 6.06680000 11.50600000 11.46416000 13.22144000 14.43480000 13.97456000\
13.30512000 16.31760000 13.97456000 10.20896000 3.80744000 -2.55224000 -6.31784000 -6.77808000 -4.01664000 -0.08368000\
1.75728000 3.80744000 1.92464000 0.62760000 -0.29288000 0.08368000 1.17152000 3.13800000 5.77392000 14.01640000\
9.83240000 12.80304000 15.94104000 15.48080000 14.97872000 17.61464000 14.81136000 7.07096000 0.41840000 -2.84512000\
-0.50208000 -1.79912000 -2.51040000 0.96232000 1.75728000 1.25520000 2.30120000 0.79496000 -1.04600000 -0.79496000\
-1.04600000 1.96648000 1.00416000 5.14632000 7.19648000 13.26328000 17.61464000 18.36776000 17.90752000 15.35528000\
9.49768000 -2.00832000 -1.71544000 -0.16736000 -1.50624000 -3.43088000 -0.71128000 0.58576000 1.12968000 1.33888000\
1.29704000 -2.80328000 -3.97480000 -6.40152000 -6.19232000 -0.83680000 -4.93712000 0.33472000 9.83240000 17.61464000\
22.50992000 22.55176000 18.32592000 10.29264000 4.68608000 0.46024000 0.04184000 -0.62760000 -3.34720000 -2.42672000\
0.33472000 1.12968000 -0.20920000 1.58992000 1.04600000 -3.72376000 -6.61072000 -8.15880000 -8.28432000 -8.36800000\
-4.89528000 4.47688000 17.48912000 28.20016000 25.39688000 20.12504000 11.63152000 5.52288000 3.22168000 -0.04184000\
1.17152000 -2.97064000 5.48104000 6.35968000 8.03328000 9.28848000 0.79496000 2.21752000 1.38072000 -6.69440000\
-11.92440000 -14.85320000 -13.72352000 -11.12944000 1.21336000 23.38856000 15.60632000 13.47248000 13.68168000 10.54368000\
6.65256000 5.77392000 3.59824000 2.76144000 6.77808000 3.55640000 2.13384000 3.09616000 4.26768000 6.77808000\
-1.42256000 0.75312000 -2.55224000 -10.71104000 -15.85736000 -15.94104000 -13.22144000 -7.32200000 11.84072000 3.30536000\
1.33888000 2.00832000 2.63592000 4.10032000 5.18816000 6.98728000 6.90360000 10.54368000 6.73624000 3.26352000\
0.50208000 0.29288000 0.50208000 -6.56888000 -5.06264000 -8.07512000 -10.87840000 -15.85736000 -16.44312000 -15.14608000\
-11.21312000 -3.84928000 -3.26352000 -7.99144000 -8.57720000 -7.74040000 -4.39320000 0.75312000 7.02912000 9.28848000\
5.69024000 10.25080000 6.02496000 2.84512000 -1.00416000 -2.25936000 -3.30536000 -9.12112000 -13.43064000 -18.20040000\
-16.48496000 -16.35944000 -14.47664000 -11.58968000 7.36384000 1.29704000 -12.38464000 -14.56032000 -14.39296000 -10.04160000\
-4.72792000 1.42256000 5.98312000 5.81576000 4.05848000 10.29264000 6.35968000 2.30120000 -1.71544000 -6.19232000\
-14.97872000 -17.27992000 -19.07904000 -18.57696000 -14.97872000 -12.38464000 -8.20064000 -4.47688000 -6.69440000 -10.25080000\
-16.81968000 -16.06656000 -14.10008000 -9.74872000 -4.10032000 1.50624000 3.38904000 3.13800000 2.09200000 7.94960000\
3.22168000 -1.75728000 -13.76536000 -16.35944000 -18.91168000 -20.45976000 -16.10840000 -17.36360000 -11.17128000 -9.91608000\
-11.96624000 -14.30928000 -15.35528000 -15.06240000 -14.01640000 -12.46832000 -9.70688000 -5.18816000 -1.08784000 3.01248000\
2.80328000 1.84096000 10.04160000 6.81992000 -8.40984000 -13.84904000 -16.69416000 -18.95352000 -20.29240000 -15.77368000\
-16.48496000 -16.27576000 -10.92024000 -14.68584000 -15.73184000 -15.22976000 -14.43480000 -13.97456000 -9.41400000 -6.86176000\
-4.22584000 0.16736000 2.67776000 3.43088000 2.17568000 -0.04184000 -1.54808000 -4.97896000 -9.99976000 -14.14192000\
-18.82800000 -23.38856000 -23.05384000 -20.66896000 -16.02472000 -16.06656000 -15.48080000 -17.36360000 -17.44728000 -15.60632000\
-15.64816000 -10.96208000 -7.19648000 -4.93712000 -1.79912000 1.17152000 3.38904000 3.34720000 2.00832000 -1.42256000\
-3.30536000 -7.40568000 -11.75704000 -15.89920000 -21.84048000 -26.27552000 -27.53072000 -23.59776000 -21.17104000 -16.81968000\
-17.36360000 -18.70248000 -17.15440000 -15.77368000 -13.22144000 -11.08760000 -7.74040000 -4.56056000 -1.88280000 0.54392000\
4.22584000 3.68192000 2.05016000 -0.92048000 -3.59824000 -7.02912000 -12.59384000 -17.27992000 -25.06216000 -28.70224000\
-28.57672000 -24.47640000 -16.15024000 -20.33424000 -20.54344000 -19.74848000 -19.24640000 -17.11256000 -13.68168000 -10.08344000\
-8.24248000 -4.68608000 -2.25936000 -0.62760000 3.17984000 4.35136000 3.17984000 1.29704000 -1.38072000 -7.82408000\
-14.10008000 -20.96184000 -25.60608000 -29.49720000 -29.20432000 -15.48080000 -18.86984000 -21.29656000 -22.67728000 -20.29240000\
-18.57696000 -16.73600000 -14.30928000 -11.50600000 -8.82824000 -4.89528000 -1.33888000 -0.04184000 1.33888000 4.56056000\
3.93296000 2.63592000 -0.71128000 -7.65672000 -14.51848000 -20.71080000 -25.56424000 -8.03328000 -16.94520000 -20.92000000\
-20.92000000 -20.25056000 -20.45976000 -17.99120000 -18.78616000 -18.57696000 -17.40544000 -13.30512000 -7.36384000 -1.67360000\
0.08368000 1.50624000 2.63592000 5.27184000 5.69024000 3.97480000 -0.29288000 -6.19232000 -13.17960000 7.69856000\
-7.36384000 -21.29656000 -24.01616000 -22.55176000 -19.99952000 -17.53096000 -17.23808000 -16.90336000 -17.27992000 -16.86152000\
-16.86152000 -12.30096000 -3.38904000 -0.29288000 1.58992000 2.25936000 5.35552000 6.86176000 7.11280000 6.35968000\
2.63592000 -4.56056000 -11.46416000 -3.09616000 -19.07904000 -26.81944000 -24.64376000 -21.50576000 -17.53096000 -15.35528000\
-16.06656000 -14.89504000 -14.85320000 -13.59800000 -11.50600000 -7.57304000 

C NH1 CT1 C N 1 24 24\
0.54392000 3.22168000 4.05848000 5.23000000 8.87008000 11.38048000 8.74456000 7.48936000 3.26352000 -2.88696000\
4.18400000 -9.20480000 -20.20872000 -20.16688000 -20.54344000 -15.02056000 -11.58968000 -11.63152000 -10.25080000 -9.83240000\
-9.79056000 -6.35968000 -3.97480000 -0.16736000 -0.54392000 5.77392000 6.61072000 7.82408000 10.04160000 10.41816000\
10.20896000 8.07512000 4.56056000 2.67776000 1.08784000 -11.71520000 -16.77784000 -17.32176000 -14.30928000 -10.87840000\
-9.62320000 -6.27600000 -4.60240000 -3.59824000 -2.67776000 -0.87864000 -4.51872000 -4.68608000 0.33472000 5.94128000\
6.77808000 8.57720000 11.08760000 11.38048000 9.70688000 8.32616000 6.52704000 10.29264000 -0.96232000 -7.61488000\
-10.79472000 -12.59384000 -10.66920000 -7.90776000 -5.64840000 -3.05432000 0.29288000 -0.96232000 -3.22168000 -5.35552000\
-5.39736000 -3.43088000 3.89112000 6.35968000 9.37216000 10.66920000 13.01224000 12.21728000 10.29264000 9.16296000\
8.61904000 7.74040000 0.50208000 -4.93712000 -8.36800000 -9.53952000 -8.20064000 -5.60656000 -3.89112000 0.08368000\
1.29704000 -2.17568000 -4.81160000 -4.10032000 -2.38488000 -1.84096000 5.69024000 8.20064000 11.29680000 12.71936000\
15.48080000 14.89504000 11.04576000 11.58968000 11.38048000 6.81992000 2.97064000 -3.30536000 -8.87008000 -11.00392000\
-7.53120000 -1.79912000 -0.25104000 1.84096000 3.80744000 -2.30120000 -4.05848000 -3.59824000 -1.04600000 1.88280000\
8.57720000 10.62736000 11.79888000 12.92856000 14.10008000 14.85320000 12.84488000 12.13360000 12.38464000 8.87008000\
3.80744000 -3.43088000 -8.74456000 -9.37216000 -6.10864000 0.87864000 0.33472000 3.22168000 4.35136000 -0.50208000\
-1.33888000 -0.66944000 1.29704000 3.05432000 6.06680000 11.50600000 11.46416000 13.22144000 14.43480000 13.97456000\
13.30512000 16.31760000 13.97456000 10.20896000 3.80744000 -2.55224000 -6.31784000 -6.77808000 -4.01664000 -0.08368000\
1.75728000 3.80744000 1.92464000 0.62760000 -0.29288000 0.08368000 1.17152000 3.13800000 5.77392000 14.01640000\
9.83240000 12.80304000 15.94104000 15.48080000 14.97872000 17.61464000 14.81136000 7.07096000 0.41840000 -2.84512000\
-0.50208000 -1.79912000 -2.51040000 0.96232000 1.75728000 1.25520000 2.30120000 0.79496000 -1.04600000 -0.79496000\
-1.04600000 1.96648000 1.00416000 5.14632000 7.19648000 13.26328000 17.61464000 18.36776000 17.90752000 15.35528000\
9.49768000 -2.00832000 -1.71544000 -0.16736000 -1.50624000 -3.43088000 -0.71128000 0.58576000 1.12968000 1.33888000\
1.29704000 -2.80328000 -3.97480000 -6.40152000 -6.19232000 -0.83680000 -4.93712000 0.33472000 9.83240000 17.61464000\
22.50992000 22.55176000 18.32592000 10.29264000 4.68608000 0.46024000 0.04184000 -0.62760000 -3.34720000 -2.42672000\
0.33472000 1.12968000 -0.20920000 1.58992000 1.04600000 -3.72376000 -6.61072000 -8.15880000 -8.28432000 -8.36800000\
-4.89528000 4.47688000 17.48912000 28.20016000 25.39688000 20.12504000 11.63152000 5.52288000 3.22168000 -0.04184000\
1.17152000 -2.97064000 5.48104000 6.35968000 8.03328000 9.28848000 0.79496000 2.21752000 1.38072000 -6.69440000\
-11.92440000 -14.85320000 -13.72352000 -11.12944000 1.21336000 23.38856000 15.60632000 13.47248000 13.68168000 10.54368000\
6.65256000 5.77392000 3.59824000 2.76144000 6.77808000 3.55640000 2.13384000 3.09616000 4.26768000 6.77808000\
-1.42256000 0.75312000 -2.55224000 -10.71104000 -15.85736000 -15.94104000 -13.22144000 -7.32200000 11.84072000 3.30536000\
1.33888000 2.00832000 2.63592000 4.10032000 5.18816000 6.98728000 6.90360000 10.54368000 6.73624000 3.26352000\
0.50208000 0.29288000 0.50208000 -6.56888000 -5.06264000 -8.07512000 -10.87840000 -15.85736000 -16.44312000 -15.14608000\
-11.21312000 -3.84928000 -3.26352000 -7.99144000 -8.57720000 -7.74040000 -4.39320000 0.75312000 7.02912000 9.28848000\
5.69024000 10.25080000 6.02496000 2.84512000 -1.00416000 -2.25936000 -3.30536000 -9.12112000 -13.43064000 -18.20040000\
-16.48496000 -16.35944000 -14.47664000 -11.58968000 7.36384000 1.29704000 -12.38464000 -14.56032000 -14.39296000 -10.04160000\
-4.72792000 1.42256000 5.98312000 5.81576000 4.05848000 10.29264000 6.35968000 2.30120000 -1.71544000 -6.19232000\
-14.97872000 -17.27992000 -19.07904000 -18.57696000 -14.97872000 -12.38464000 -8.20064000 -4.47688000 -6.69440000 -10.25080000\
-16.81968000 -16.06656000 -14.10008000 -9.74872000 -4.10032000 1.50624000 3.38904000 3.13800000 2.09200000 7.94960000\
3.22168000 -1.75728000 -13.76536000 -16.35944000 -18.91168000 -20.45976000 -16.10840000 -17.36360000 -11.17128000 -9.91608000\
-11.96624000 -14.30928000 -15.35528000 -15.06240000 -14.01640000 -12.46832000 -9.70688000 -5.18816000 -1.08784000 3.01248000\
2.80328000 1.84096000 10.04160000 6.81992000 -8.40984000 -13.84904000 -16.69416000 -18.95352000 -20.29240000 -15.77368000\
-16.48496000 -16.27576000 -10.92024000 -14.68584000 -15.73184000 -15.22976000 -14.43480000 -13.97456000 -9.41400000 -6.86176000\
-4.22584000 0.16736000 2.67776000 3.43088000 2.17568000 -0.04184000 -1.54808000 -4.97896000 -9.99976000 -14.14192000\
-18.82800000 -23.38856000 -23.05384000 -20.66896000 -16.02472000 -16.06656000 -15.48080000 -17.36360000 -17.44728000 -15.60632000\
-15.64816000 -10.96208000 -7.19648000 -4.93712000 -1.79912000 1.17152000 3.38904000 3.34720000 2.00832000 -1.42256000\
-3.30536000 -7.40568000 -11.75704000 -15.89920000 -21.84048000 -26.27552000 -27.53072000 -23.59776000 -21.17104000 -16.81968000\
-17.36360000 -18.70248000 -17.15440000 -15.77368000 -13.22144000 -11.08760000 -7.74040000 -4.56056000 -1.88280000 0.54392000\
4.22584000 3.68192000 2.05016000 -0.92048000 -3.59824000 -7.02912000 -12.59384000 -17.27992000 -25.06216000 -28.70224000\
-28.57672000 -24.47640000 -16.15024000 -20.33424000 -20.54344000 -19.74848000 -19.24640000 -17.11256000 -13.68168000 -10.08344000\
-8.24248000 -4.68608000 -2.25936000 -0.62760000 3.17984000 4.35136000 3.17984000 1.29704000 -1.38072000 -7.82408000\
-14.10008000 -20.96184000 -25.60608000 -29.49720000 -29.20432000 -15.48080000 -18.86984000 -21.29656000 -22.67728000 -20.29240000\
-18.57696000 -16.73600000 -14.30928000 -11.50600000 -8.82824000 -4.89528000 -1.33888000 -0.04184000 1.33888000 4.56056000\
3.93296000 2.63592000 -0.71128000 -7.65672000 -14.51848000 -20.71080000 -25.56424000 -8.03328000 -16.94520000 -20.92000000\
-20.92000000 -20.25056000 -20.45976000 -17.99120000 -18.78616000 -18.57696000 -17.40544000 -13.30512000 -7.36384000 -1.67360000\
0.08368000 1.50624000 2.63592000 5.27184000 5.69024000 3.97480000 -0.29288000 -6.19232000 -13.17960000 7.69856000\
-7.36384000 -21.29656000 -24.01616000 -22.55176000 -19.99952000 -17.53096000 -17.23808000 -16.90336000 -17.27992000 -16.86152000\
-16.86152000 -12.30096000 -3.38904000 -0.29288000 1.58992000 2.25936000 5.35552000 6.86176000 7.11280000 6.35968000\
2.63592000 -4.56056000 -11.46416000 -3.09616000 -19.07904000 -26.81944000 -24.64376000 -21.50576000 -17.53096000 -15.35528000\
-16.06656000 -14.89504000 -14.85320000 -13.59800000 -11.50600000 -7.57304000 

C N CP1 C NH1 1 24 24\
12.44112400 14.00886880 12.81517360 8.84246560 4.35345200 3.22419040 3.28527680 1.10164720 -2.00413600 -2.43927200\
-1.94053920 -1.22423840 0.00000000 1.08407440 0.74098640 -0.63262080 -0.72592400 0.88575280 1.45979760 -0.56735040\
-3.97480000 -5.25761440 -1.22507520 6.52704000 23.74043440 25.15169760 23.27433680 18.69118320 14.18710720 12.58881920\
11.91854240 9.67006080 6.95129760 6.14378560 4.78105680 6.01408160 8.84162880 11.71310800 12.50639440 12.00389600\
12.61936240 13.92644400 13.52645360 10.65915840 6.89188480 5.95257680 10.53154640 18.15772320 28.25371520 29.17586880\
26.96295120 22.55092320 18.57110240 16.92846400 16.03643520 14.40300160 13.82184400 12.59384000 11.87461040 13.23064480\
15.80840720 18.25395520 19.26146240 19.02130080 19.67358640 20.23884480 19.03510800 16.10672640 12.96705280 12.68505120\
16.98787680 23.53416320 31.91471520 34.11382560 30.72102000 24.65840400 20.07985280 18.54934560 19.04347600 18.58867520\
9.29768480 3.24803920 3.30536000 9.00522320 16.45525360 22.07018160 24.39606720 25.05630240 23.38228400 21.80282400\
20.57691200 17.95814640 14.62517200 14.43396320 19.32045680 26.40815280 33.95567040 35.46860480 32.44399120 27.55164000\
23.17057360 20.77063120 20.62293600 18.49830080 9.77424240 5.26263520 7.40275120 14.05782160 20.99531200 25.33621200\
26.01443840 23.95800240 23.06304480 24.35171680 23.91867280 20.38570320 17.01549120 17.13180640 22.11202160 29.00139600\
38.70074480 39.67687200 36.26900400 31.48585520 29.30138880 28.59596640 28.54366640 22.12331840 13.89339040 11.04701520\
14.49672320 21.33965520 27.35331840 28.80935040 24.44292800 21.96056080 23.18019680 27.83364160 30.11099280 27.72067360\
23.89105840 23.35383280 27.82987600 34.27867520 39.06015040 38.52627200 35.83428640 33.51467680 32.99125840 34.35984480\
36.55602640 35.26735440 30.57039600 27.08805280 27.82903920 31.31598480 34.28913520 34.70628000 30.99172480 27.32110160\
26.11652800 26.05586000 26.55710320 26.98554480 26.79726480 27.52779120 30.92687280 35.85980880 45.83655680 47.92939360\
46.74908720 43.63368080 42.10108160 42.02618800 38.82584640 29.14197840 22.43251600 21.34969680 26.22363840 32.93477440\
33.51300320 29.72522800 27.68301760 28.17380080 31.39673600 36.25310480 38.83923520 36.80204560 32.93854000 31.85028160\
35.55605040 41.39649600 35.24141360 35.68617280 36.01796400 38.93797760 42.84164960 46.13236560 48.16118720 38.84216400\
31.65614400 27.71732640 29.44992080 34.40252160 36.76229760 35.61420800 33.90504400 33.42262880 34.27909360 34.68954400\
33.70463040 31.11557120 27.83113120 26.43032800 28.46166000 32.41051920 28.92482880 33.21008160 36.02758720 38.98065440\
39.28148400 39.36474560 36.93969920 30.53441360 22.82957760 19.84345680 24.23833040 29.78505920 31.65363360 31.79212400\
31.12352080 31.43230000 32.96197040 33.81592480 31.97705680 26.44497200 19.58279360 16.02681200 17.63890720 22.74087680\
22.87267280 29.77334400 37.27441920 34.92468480 31.01808400 29.48464800 25.23621440 17.54393040 11.19136320 12.65116080\
18.76649520 22.80991280 26.00314160 26.87215840 26.06339120 25.90356240 27.14955760 27.80853760 24.40694560 15.69543920\
7.19564320 4.45554160 8.18306720 16.15358720 12.80931600 23.44629920 50.95902800 26.33911680 22.27310560 20.19407600\
15.50423040 10.29891600 9.58805440 13.16244560 14.90382640 18.59202240 22.33210000 23.96929920 23.82704320 23.60445440\
24.86676720 25.81109600 19.91374800 10.75036960 5.67810640 6.98644320 13.44026320 21.05346960 33.83140560 33.68580240\
21.01874240 14.43814720 11.86624240 9.17342000 6.55298080 6.09315920 8.53243120 8.13871680 9.15626560 12.22271920\
14.50802000 14.82600400 14.11890800 14.52810320 17.02846160 15.12767040 8.71192480 4.01078240 3.31623840 6.25173280\
11.69386160 20.30537040 27.77966800 21.66224160 13.60762320 8.17009680 4.51202560 3.71664720 6.29859360 10.21858320\
9.11526240 6.60486240 7.43664160 10.02235360 11.79971680 11.69511680 11.13948160 12.20514640 10.71982640 6.51825360\
5.53250320 6.82577760 8.58222080 10.69263040 12.71559440 20.56436000 31.58417920 21.31957200 11.49344800 3.99655680\
1.85978800 5.51744080 11.43612720 13.48586880 10.73405200 8.99936560 10.01816960 12.29803120 13.66494400 13.43064000\
13.02646560 10.42359920 4.09320720 3.41121520 6.37097680 8.60063040 9.20438160 9.73867840 14.53605280 33.37911520\
0.00000000 0.00000000 0.00000000 0.00000000 0.00000000 0.00000000 0.00000000 0.00000000 0.00000000 0.00000000\
0.00000000 0.00000000 0.00000000 0.00000000 0.00000000 0.00000000 0.00000000 0.00000000 0.00000000 0.00000000\
0.00000000 0.00000000 0.00000000 0.00000000 0.00000000 0.00000000 0.00000000 0.00000000 0.00000000 0.00000000\
0.00000000 0.00000000 0.00000000 0.00000000 0.00000000 0.00000000 0.00000000 0.00000000 0.00000000 0.00000000\
0.00000000 0.00000000 0.00000000 0.00000000 0.00000000 0.00000000 0.00000000 0.00000000 0.00000000 0.00000000\
0.00000000 0.00000000 0.00000000 0.00000000 0.00000000 0.00000000 0.00000000 0.00000000 0.00000000 0.00000000\
0.00000000 0.00000000 0.00000000 0.00000000 0.00000000 0.00000000 0.00000000 0.00000000 0.00000000 0.00000000\
0.00000000 0.00000000 0.00000000 0.00000000 0.00000000 0.00000000 0.00000000 0.00000000 0.00000000 0.00000000\
0.00000000 0.00000000 0.00000000 0.00000000 0.00000000 0.00000000 0.00000000 0.00000000 0.00000000 0.00000000\
0.00000000 0.00000000 0.00000000 0.00000000 0.00000000 0.00000000 0.00000000 0.00000000 0.00000000 0.00000000\
0.00000000 0.00000000 0.00000000 0.00000000 0.00000000 0.00000000 0.00000000 0.00000000 0.00000000 0.00000000\
0.00000000 0.00000000 0.00000000 0.00000000 0.00000000 0.00000000 0.00000000 0.00000000 0.00000000 0.00000000\
0.00000000 0.00000000 0.00000000 0.00000000 0.00000000 0.00000000 0.00000000 0.00000000 0.00000000 0.00000000\
0.00000000 0.00000000 0.00000000 0.00000000 0.00000000 0.00000000 0.00000000 0.00000000 0.00000000 0.00000000\
0.00000000 0.00000000 0.00000000 0.00000000 0.00000000 0.00000000 0.00000000 0.00000000 0.00000000 0.00000000\
0.00000000 0.00000000 0.00000000 0.00000000 0.00000000 0.00000000 0.00000000 0.00000000 0.00000000 0.00000000\
0.00000000 0.00000000 0.00000000 0.00000000 0.00000000 0.00000000 0.00000000 0.00000000 0.00000000 0.00000000\
0.00000000 0.00000000 0.00000000 0.00000000 0.00000000 0.00000000 0.00000000 0.00000000 0.00000000 0.00000000\
0.00000000 0.00000000 0.00000000 0.00000000 0.00000000 0.00000000 0.00000000 0.00000000 0.00000000 0.00000000\
0.00000000 0.00000000 0.00000000 0.00000000 0.00000000 0.00000000 0.00000000 0.00000000 0.00000000 0.00000000\
0.00000000 0.00000000 0.00000000 0.00000000 0.00000000 0.00000000 0.00000000 0.00000000 0.00000000 0.00000000\
0.00000000 0.00000000 0.00000000 0.00000000 0.00000000 0.00000000 

C N CP1 C N 1 24 24\
12.44112400 14.00886880 12.81517360 8.84246560 4.35345200 3.22419040 3.28527680 1.10164720 -2.00413600 -2.43927200\
-1.94053920 -1.22423840 0.00000000 1.08407440 0.74098640 -0.63262080 -0.72592400 0.88575280 1.45979760 -0.56735040\
-3.97480000 -5.25761440 -1.22507520 6.52704000 23.74043440 25.15169760 23.27433680 18.69118320 14.18710720 12.58881920\
11.91854240 9.67006080 6.95129760 6.14378560 4.78105680 6.01408160 8.84162880 11.71310800 12.50639440 12.00389600\
12.61936240 13.92644400 13.52645360 10.65915840 6.89188480 5.95257680 10.53154640 18.15772320 28.25371520 29.17586880\
26.96295120 22.55092320 18.57110240 16.92846400 16.03643520 14.40300160 13.82184400 12.59384000 11.87461040 13.23064480\
15.80840720 18.25395520 19.26146240 19.02130080 19.67358640 20.23884480 19.03510800 16.10672640 12.96705280 12.68505120\
16.98787680 23.53416320 31.91471520 34.11382560 30.72102000 24.65840400 20.07985280 18.54934560 19.04347600 18.58867520\
9.29768480 3.24803920 3.30536000 9.00522320 16.45525360 22.07018160 24.39606720 25.05630240 23.38228400 21.80282400\
20.57691200 17.95814640 14.62517200 14.43396320 19.32045680 26.40815280 33.95567040 35.46860480 32.44399120 27.55164000\
23.17057360 20.77063120 20.62293600 18.49830080 9.77424240 5.26263520 7.40275120 14.05782160 20.99531200 25.33621200\
26.01443840 23.95800240 23.06304480 24.35171680 23.91867280 20.38570320 17.01549120 17.13180640 22.11202160 29.00139600\
38.70074480 39.67687200 36.26900400 31.48585520 29.30138880 28.59596640 28.54366640 22.12331840 13.89339040 11.04701520\
14.49672320 21.33965520 27.35331840 28.80935040 24.44292800 21.96056080 23.18019680 27.83364160 30.11099280 27.72067360\
23.89105840 23.35383280 27.82987600 34.27867520 39.06015040 38.52627200 35.83428640 33.51467680 32.99125840 34.35984480\
36.55602640 35.26735440 30.57039600 27.08805280 27.82903920 31.31598480 34.28913520 34.70628000 30.99172480 27.32110160\
26.11652800 26.05586000 26.55710320 26.98554480 26.79726480 27.52779120 30.92687280 35.85980880 45.83655680 47.92939360\
46.74908720 43.63368080 42.10108160 42.02618800 38.82584640 29.14197840 22.43251600 21.34969680 26.22363840 32.93477440\
33.51300320 29.72522800 27.68301760 28.17380080 31.39673600 36.25310480 38.83923520 36.80204560 32.93854000 31.85028160\
35.55605040 41.39649600 35.24141360 35.68617280 36.01796400 38.93797760 42.84164960 46.13236560 48.16118720 38.84216400\
31.65614400 27.71732640 29.44992080 34.40252160 36.76229760 35.61420800 33.90504400 33.42262880 34.27909360 34.68954400\
33.70463040 31.11557120 27.83113120 26.43032800 28.46166000 32.41051920 28.92482880 33.21008160 36.02758720 38.98065440\
39.28148400 39.36474560 36.93969920 30.53441360 22.82957760 19.84345680 24.23833040 29.78505920 31.65363360 31.79212400\
31.12352080 31.43230000 32.96197040 33.81592480 31.97705680 26.44497200 19.58279360 16.02681200 17.63890720 22.74087680\
22.87267280 29.77334400 37.27441920 34.92468480 31.01808400 29.48464800 25.23621440 17.54393040 11.19136320 12.65116080\
18.76649520 22.80991280 26.00314160 26.87215840 26.06339120 25.90356240 27.14955760 27.80853760 24.40694560 15.69543920\
7.19564320 4.45554160 8.18306720 16.15358720 12.80931600 23.44629920 50.95902800 26.33911680 22.27310560 20.19407600\
15.50423040 10.29891600 9.58805440 13.16244560 14.90382640 18.59202240 22.33210000 23.96929920 23.82704320 23.60445440\
24.86676720 25.81109600 19.91374800 10.75036960 5.67810640 6.98644320 13.44026320 21.05346960 33.83140560 33.68580240\
21.01874240 14.43814720 11.86624240 9.17342000 6.55298080 6.09315920 8.53243120 8.13871680 9.15626560 12.22271920\
14.50802000 14.82600400 14.11890800 14.52810320 17.02846160 15.12767040 8.71192480 4.01078240 3.31623840 6.25173280\
11.69386160 20.30537040 27.77966800 21.66224160 13.60762320 8.17009680 4.51202560 3.71664720 6.29859360 10.21858320\
9.11526240 6.60486240 7.43664160 10.02235360 11.79971680 11.69511680 11.13948160 12.20514640 10.71982640 6.51825360\
5.53250320 6.82577760 8.58222080 10.69263040 12.71559440 20.56436000 31.58417920 21.31957200 11.49344800 3.99655680\
1.85978800 5.51744080 11.43612720 13.48586880 10.73405200 8.99936560 10.01816960 12.29803120 13.66494400 13.43064000\
13.02646560 10.42359920 4.09320720 3.41121520 6.37097680 8.60063040 9.20438160 9.73867840 14.53605280 33.37911520\
0.00000000 0.00000000 0.00000000 0.00000000 0.00000000 0.00000000 0.00000000 0.00000000 0.00000000 0.00000000\
0.00000000 0.00000000 0.00000000 0.00000000 0.00000000 0.00000000 0.00000000 0.00000000 0.00000000 0.00000000\
0.00000000 0.00000000 0.00000000 0.00000000 0.00000000 0.00000000 0.00000000 0.00000000 0.00000000 0.00000000\
0.00000000 0.00000000 0.00000000 0.00000000 0.00000000 0.00000000 0.00000000 0.00000000 0.00000000 0.00000000\
0.00000000 0.00000000 0.00000000 0.00000000 0.00000000 0.00000000 0.00000000 0.00000000 0.00000000 0.00000000\
0.00000000 0.00000000 0.00000000 0.00000000 0.00000000 0.00000000 0.00000000 0.00000000 0.00000000 0.00000000\
0.00000000 0.00000000 0.00000000 0.00000000 0.00000000 0.00000000 0.00000000 0.00000000 0.00000000 0.00000000\
0.00000000 0.00000000 0.00000000 0.00000000 0.00000000 0.00000000 0.00000000 0.00000000 0.00000000 0.00000000\
0.00000000 0.00000000 0.00000000 0.00000000 0.00000000 0.00000000 0.00000000 0.00000000 0.00000000 0.00000000\
0.00000000 0.00000000 0.00000000 0.00000000 0.00000000 0.00000000 0.00000000 0.00000000 0.00000000 0.00000000\
0.00000000 0.00000000 0.00000000 0.00000000 0.00000000 0.00000000 0.00000000 0.00000000 0.00000000 0.00000000\
0.00000000 0.00000000 0.00000000 0.00000000 0.00000000 0.00000000 0.00000000 0.00000000 0.00000000 0.00000000\
0.00000000 0.00000000 0.00000000 0.00000000 0.00000000 0.00000000 0.00000000 0.00000000 0.00000000 0.00000000\
0.00000000 0.00000000 0.00000000 0.00000000 0.00000000 0.00000000 0.00000000 0.00000000 0.00000000 0.00000000\
0.00000000 0.00000000 0.00000000 0.00000000 0.00000000 0.00000000 0.00000000 0.00000000 0.00000000 0.00000000\
0.00000000 0.00000000 0.00000000 0.00000000 0.00000000 0.00000000 0.00000000 0.00000000 0.00000000 0.00000000\
0.00000000 0.00000000 0.00000000 0.00000000 0.00000000 0.00000000 0.00000000 0.00000000 0.00000000 0.00000000\
0.00000000 0.00000000 0.00000000 0.00000000 0.00000000 0.00000000 0.00000000 0.00000000 0.00000000 0.00000000\
0.00000000 0.00000000 0.00000000 0.00000000 0.00000000 0.00000000 0.00000000 0.00000000 0.00000000 0.00000000\
0.00000000 0.00000000 0.00000000 0.00000000 0.00000000 0.00000000 0.00000000 0.00000000 0.00000000 0.00000000\
0.00000000 0.00000000 0.00000000 0.00000000 0.00000000 0.00000000 0.00000000 0.00000000 0.00000000 0.00000000\
0.00000000 0.00000000 0.00000000 0.00000000 0.00000000 0.00000000 

C NH1 CT2 C NH1 1 24 24\
0.98470440 0.76274320 0.74140480 1.66021120 3.59572960 6.23290480 8.75502000 9.61357680 7.56718240 2.91290080\
-2.35684720 -5.99441680 -4.24717840 5.96763920 -2.36103120 2.91290080 7.56550880 9.63031280 8.75543840 6.23039440\
3.59614800 1.66062960 0.74014960 0.76316160 0.08409840 -0.85269920 -1.12842480 0.05941280 2.59742720 5.82580160\
8.56130080 9.15542880 7.04543760 2.88068400 -1.56356080 -2.94344400 3.50535520 15.49753600 -3.05473840 2.48571440\
7.16761040 9.22906720 8.47845760 6.40068320 4.29864160 2.60997920 1.45770560 0.76483520 -2.23258240 -3.37816160\
-3.36644640 -1.58908320 1.52841520 4.88691200 6.86594400 6.77013040 5.44840480 2.57357840 0.27488880 3.08988400\
12.38254800 -8.52113440 -3.91036640 1.70665360 6.34712800 8.30440320 7.66969040 6.00487680 4.16559040 2.35224480\
0.63011040 -0.87445600 -5.05636400 -5.98060960 -5.51953280 -3.42042000 -0.47028160 1.90120960 3.08611840 3.67899120\
3.55681840 2.80453520 3.94760400 -11.09262080 -11.83820960 -9.20103440 -4.45888880 1.16984640 5.53124800 6.98016720\
6.36511920 4.99527760 3.20201520 1.02926400 -1.32005200 -3.44426880 -7.48559440 -8.22365200 -7.78516880 -6.05801360\
-3.75095600 -1.67778400 -0.06317840 1.34431920 2.65516640 4.08483920 -8.27386000 -12.06330880 -11.91812400 -8.94497360\
-4.01789520 1.29160080 4.59445040 5.21033520 4.74298240 3.68945120 1.87526880 -0.64391760 -3.44636080 -5.87559120\
-9.40019280 -10.40560800 -10.34996080 -8.93535040 -6.60109680 -4.10283040 -1.79535440 0.60542480 3.07105600 -3.84216720\
-9.61985280 -12.05912480 -11.16542240 -7.72826640 -3.01164320 0.44768800 2.07526400 2.31584400 2.44471120 2.06689600\
0.41128720 -2.21668320 -5.17937360 -7.69897840 -11.92900240 -13.30972240 -13.38670800 -11.65369520 -8.59519120 -5.20029360\
-1.99367600 1.20541040 -0.18953520 -6.15299040 -10.70601920 -12.00556960 -10.25205520 -6.61992480 -3.89446720 -1.78405760\
-0.09497680 0.00000000 -0.40752160 -0.56944240 -1.83928640 -4.34550240 -7.28434400 -9.92946880 -16.57617120 -17.85814880\
-17.19205600 -14.07790480 -9.42320480 -4.77143360 -0.87780320 2.03886320 -3.12210080 -8.90229680 -12.26790640 -12.12732400\
-9.40521360 -7.23999360 -4.92540480 -1.87526880 0.14602160 -0.30668720 -2.22421440 -3.90492720 -5.69316880 -8.40649280\
-11.48800880 -14.32978160 -22.62707200 -22.40573840 -19.41417840 -13.73690880 -7.15547680 -1.77317920 1.48280960 -0.43388080\
-6.60109680 -11.83360720 -13.18462080 -11.08425280 -9.13367200 -7.36886080 -4.10743280 -0.73094480 1.09871840 0.16401280\
-2.77399200 -6.40444880 -10.36878880 -14.50007040 -18.13429280 -20.96686080 -25.49394880 -22.16850560 -15.96873808 -8.04386552\
-0.82073344 3.21414880 2.37860400 -3.47815920 -9.80687760 -12.70722640 -11.14492080 -9.16756240 -8.46381360 -6.01868400\
-2.71541600 0.32216800 1.84723600 1.07738000 -2.05476240 -7.61739040 -14.53145040 -20.48151680 -24.22828880 -25.96548560\
-22.00041340 -15.37952628 -6.82456424 1.79947564 6.26123048 1.33134880 -2.32253840 -7.09397200 -10.18469280 -9.17383840\
-7.07639920 -7.90776000 -7.14836400 -5.04715920 -2.37400160 0.22719120 2.08028480 2.50872640 -0.71546400 -8.94371840\
-17.72760800 -23.36387440 -25.66925840 -25.38432800 -13.22905488 -3.77430272 5.99337080 -6.07887084 -6.53030352 -6.96887040\
-7.46049040 -7.34333840 -5.56179120 -3.05892240 -5.51032800 -6.95715520 -6.69942080 -5.41786160 -3.41958320 -0.82466640\
2.29910800 3.55807360 -2.88570480 -11.79846160 -18.38031200 -21.38651600 -21.78060696 -19.47562044 0.14240244 -9.83181424\
-14.27607996 -15.14637288 -14.43877480 -12.03171960 -7.48015520 -2.26459000 1.71732280 -1.55854000 -4.71474040 -6.26951480\
-6.73080080 -6.26951480 -4.71474040 -1.55854000 1.71732280 -2.26459000 -7.48015520 -12.03171960 -14.43877480 -15.14637288\
-14.27607996 -9.83181424 -13.23125148 -19.47562044 -21.78060696 -21.38651600 -18.38031200 -11.79846160 -2.88570480 3.55807360\
2.29910800 -0.82466640 -3.41958320 -5.41786160 -6.69942080 -6.95715520 -5.51032800 -3.05892240 -5.56179120 -7.34333840\
-7.46049040 -6.96887040 -6.53030352 -6.07887084 5.99337080 -3.77430272 -22.00039248 -25.38432800 -25.66925840 -23.36387440\
-17.72760800 -8.94371840 -0.71546400 2.50872640 2.08028480 0.22719120 -2.37400160 -5.04715920 -7.14836400 -7.90776000\
-7.07639920 -9.17383840 -10.18469280 -7.09397200 -2.32253840 1.33134880 6.26123048 1.79947564 -6.82456424 -15.37952628\
-25.49436720 -25.96548560 -24.22828880 -20.48151680 -14.53145040 -7.61739040 -2.05476240 1.07738000 1.84723600 0.32216800\
-2.71541600 -6.01868400 -8.46381360 -9.16756240 -11.14492080 -12.70722640 -9.80687760 -3.47815920 2.37860400 3.21414880\
-0.82073344 -8.04386552 -15.96873808 -22.16850560 -22.62498000 -20.96686080 -18.13429280 -14.50007040 -10.36878880 -6.40444880\
-2.77399200 0.16401280 1.09871840 -0.73094480 -4.10743280 -7.36886080 -9.13367200 -11.08425280 -13.18462080 -11.83360720\
-6.60109680 -0.43388080 1.48280960 -1.77317920 -7.15547680 -13.73690880 -19.41417840 -22.40573840 -16.57658960 -14.32978160\
-11.48800880 -8.40649280 -5.69316880 -3.90492720 -2.22421440 -0.30668720 0.14602160 -1.87526880 -4.92540480 -7.23999360\
-9.40521360 -12.12732400 -12.26790640 -8.90229680 -3.12210080 2.03886320 -0.87780320 -4.77143360 -9.42320480 -14.07790480\
-17.19205600 -17.85814880 -11.94322800 -9.92946880 -7.28434400 -4.34550240 -1.83928640 -0.56944240 -0.40752160 0.00000000\
-0.09497680 -1.78405760 -3.89446720 -6.61992480 -10.25205520 -12.00556960 -10.70601920 -6.15299040 -0.18953520 1.20541040\
-1.99367600 -5.20029360 -8.59519120 -11.65369520 -13.38670800 -13.30972240 -9.39893760 -7.69897840 -5.17937360 -2.21668320\
0.41128720 2.06689600 2.44471120 2.31584400 2.07526400 0.44768800 -3.01164320 -7.72826640 -11.16542240 -12.05912480\
-9.61985280 -3.84216720 3.07105600 0.60542480 -1.79535440 -4.10283040 -6.60109680 -8.93535040 -10.34996080 -10.40560800\
-7.48433920 -5.87559120 -3.44636080 -0.64391760 1.87526880 3.68945120 4.74298240 5.21033520 4.59445040 1.29160080\
-4.01789520 -8.94497360 -11.91812400 -12.06330880 -8.27386000 4.08483920 2.65516640 1.34431920 -0.06317840 -1.67778400\
-3.75095600 -6.05801360 -7.78516880 -8.22365200 -5.05803760 -3.44426880 -1.32005200 1.02926400 3.20201520 4.99527760\
6.36511920 6.98016720 5.53124800 1.16984640 -4.45888880 -9.20103440 -11.83820960 -11.09262080 3.94760400 2.80453520\
3.55681840 3.67899120 3.08611840 1.90120960 -0.47028160 -3.42042000 -5.51953280 -5.98060960 -2.23174560 -0.87445600\
0.63011040 2.35224480 4.16559040 6.00487680 7.66969040 8.30440320 6.34712800 1.70665360 -3.91036640 -8.52113440\
12.38254800 3.08988400 0.27488880 2.57357840 5.44840480 6.77013040 6.86594400 4.88691200 1.52841520 -1.58908320\
-3.36644640 -3.37816160 0.08326160 0.76483520 1.45770560 2.60997920 4.29864160 6.40068320 8.47845760 9.22906720\
7.16761040 2.48571440 -3.05473840 15.49753600 3.50535520 -2.94344400 -1.56356080 2.88068400 7.04543760 9.15542880\
8.56130080 5.82580160 2.59742720 0.05941280 -1.12842480 -0.85269920 

C NH1 CT2 C N 1 24 24\
0.98470440 0.76274320 0.74140480 1.66021120 3.59572960 6.23290480 8.75502000 9.61357680 7.56718240 2.91290080\
-2.35684720 -5.99441680 -4.24717840 5.96763920 -2.36103120 2.91290080 7.56550880 9.63031280 8.75543840 6.23039440\
3.59614800 1.66062960 0.74014960 0.76316160 0.08409840 -0.85269920 -1.12842480 0.05941280 2.59742720 5.82580160\
8.56130080 9.15542880 7.04543760 2.88068400 -1.56356080 -2.94344400 3.50535520 15.49753600 -3.05473840 2.48571440\
7.16761040 9.22906720 8.47845760 6.40068320 4.29864160 2.60997920 1.45770560 0.76483520 -2.23258240 -3.37816160\
-3.36644640 -1.58908320 1.52841520 4.88691200 6.86594400 6.77013040 5.44840480 2.57357840 0.27488880 3.08988400\
12.38254800 -8.52113440 -3.91036640 1.70665360 6.34712800 8.30440320 7.66969040 6.00487680 4.16559040 2.35224480\
0.63011040 -0.87445600 -5.05636400 -5.98060960 -5.51953280 -3.42042000 -0.47028160 1.90120960 3.08611840 3.67899120\
3.55681840 2.80453520 3.94760400 -11.09262080 -11.83820960 -9.20103440 -4.45888880 1.16984640 5.53124800 6.98016720\
6.36511920 4.99527760 3.20201520 1.02926400 -1.32005200 -3.44426880 -7.48559440 -8.22365200 -7.78516880 -6.05801360\
-3.75095600 -1.67778400 -0.06317840 1.34431920 2.65516640 4.08483920 -8.27386000 -12.06330880 -11.91812400 -8.94497360\
-4.01789520 1.29160080 4.59445040 5.21033520 4.74298240 3.68945120 1.87526880 -0.64391760 -3.44636080 -5.87559120\
-9.40019280 -10.40560800 -10.34996080 -8.93535040 -6.60109680 -4.10283040 -1.79535440 0.60542480 3.07105600 -3.84216720\
-9.61985280 -12.05912480 -11.16542240 -7.72826640 -3.01164320 0.44768800 2.07526400 2.31584400 2.44471120 2.06689600\
0.41128720 -2.21668320 -5.17937360 -7.69897840 -11.92900240 -13.30972240 -13.38670800 -11.65369520 -8.59519120 -5.20029360\
-1.99367600 1.20541040 -0.18953520 -6.15299040 -10.70601920 -12.00556960 -10.25205520 -6.61992480 -3.89446720 -1.78405760\
-0.09497680 0.00000000 -0.40752160 -0.56944240 -1.83928640 -4.34550240 -7.28434400 -9.92946880 -16.57617120 -17.85814880\
-17.19205600 -14.07790480 -9.42320480 -4.77143360 -0.87780320 2.03886320 -3.12210080 -8.90229680 -12.26790640 -12.12732400\
-9.40521360 -7.23999360 -4.92540480 -1.87526880 0.14602160 -0.30668720 -2.22421440 -3.90492720 -5.69316880 -8.40649280\
-11.48800880 -14.32978160 -22.62707200 -22.40573840 -19.41417840 -13.73690880 -7.15547680 -1.77317920 1.48280960 -0.43388080\
-6.60109680 -11.83360720 -13.18462080 -11.08425280 -9.13367200 -7.36886080 -4.10743280 -0.73094480 1.09871840 0.16401280\
-2.77399200 -6.40444880 -10.36878880 -14.50007040 -18.13429280 -20.96686080 -25.49394880 -22.16850560 -15.96873808 -8.04386552\
-0.82073344 3.21414880 2.37860400 -3.47815920 -9.80687760 -12.70722640 -11.14492080 -9.16756240 -8.46381360 -6.01868400\
-2.71541600 0.32216800 1.84723600 1.07738000 -2.05476240 -7.61739040 -14.53145040 -20.48151680 -24.22828880 -25.96548560\
-22.00041340 -15.37952628 -6.82456424 1.79947564 6.26123048 1.33134880 -2.32253840 -7.09397200 -10.18469280 -9.17383840\
-7.07639920 -7.90776000 -7.14836400 -5.04715920 -2.37400160 0.22719120 2.08028480 2.50872640 -0.71546400 -8.94371840\
-17.72760800 -23.36387440 -25.66925840 -25.38432800 -13.22905488 -3.77430272 5.99337080 -6.07887084 -6.53030352 -6.96887040\
-7.46049040 -7.34333840 -5.56179120 -3.05892240 -5.51032800 -6.95715520 -6.69942080 -5.41786160 -3.41958320 -0.82466640\
2.29910800 3.55807360 -2.88570480 -11.79846160 -18.38031200 -21.38651600 -21.78060696 -19.47562044 0.14240244 -9.83181424\
-14.27607996 -15.14637288 -14.43877480 -12.03171960 -7.48015520 -2.26459000 1.71732280 -1.55854000 -4.71474040 -6.26951480\
-6.73080080 -6.26951480 -4.71474040 -1.55854000 1.71732280 -2.26459000 -7.48015520 -12.03171960 -14.43877480 -15.14637288\
-14.27607996 -9.83181424 -13.23125148 -19.47562044 -21.78060696 -21.38651600 -18.38031200 -11.79846160 -2.88570480 3.55807360\
2.29910800 -0.82466640 -3.41958320 -5.41786160 -6.69942080 -6.95715520 -5.51032800 -3.05892240 -5.56179120 -7.34333840\
-7.46049040 -6.96887040 -6.53030352 -6.07887084 5.99337080 -3.77430272 -22.00039248 -25.38432800 -25.66925840 -23.36387440\
-17.72760800 -8.94371840 -0.71546400 2.50872640 2.08028480 0.22719120 -2.37400160 -5.04715920 -7.14836400 -7.90776000\
-7.07639920 -9.17383840 -10.18469280 -7.09397200 -2.32253840 1.33134880 6.26123048 1.79947564 -6.82456424 -15.37952628\
-25.49436720 -25.96548560 -24.22828880 -20.48151680 -14.53145040 -7.61739040 -2.05476240 1.07738000 1.84723600 0.32216800\
-2.71541600 -6.01868400 -8.46381360 -9.16756240 -11.14492080 -12.70722640 -9.80687760 -3.47815920 2.37860400 3.21414880\
-0.82073344 -8.04386552 -15.96873808 -22.16850560 -22.62498000 -20.96686080 -18.13429280 -14.50007040 -10.36878880 -6.40444880\
-2.77399200 0.16401280 1.09871840 -0.73094480 -4.10743280 -7.36886080 -9.13367200 -11.08425280 -13.18462080 -11.83360720\
-6.60109680 -0.43388080 1.48280960 -1.77317920 -7.15547680 -13.73690880 -19.41417840 -22.40573840 -16.57658960 -14.32978160\
-11.48800880 -8.40649280 -5.69316880 -3.90492720 -2.22421440 -0.30668720 0.14602160 -1.87526880 -4.92540480 -7.23999360\
-9.40521360 -12.12732400 -12.26790640 -8.90229680 -3.12210080 2.03886320 -0.87780320 -4.77143360 -9.42320480 -14.07790480\
-17.19205600 -17.85814880 -11.94322800 -9.92946880 -7.28434400 -4.34550240 -1.83928640 -0.56944240 -0.40752160 0.00000000\
-0.09497680 -1.78405760 -3.89446720 -6.61992480 -10.25205520 -12.00556960 -10.70601920 -6.15299040 -0.18953520 1.20541040\
-1.99367600 -5.20029360 -8.59519120 -11.65369520 -13.38670800 -13.30972240 -9.39893760 -7.69897840 -5.17937360 -2.21668320\
0.41128720 2.06689600 2.44471120 2.31584400 2.07526400 0.44768800 -3.01164320 -7.72826640 -11.16542240 -12.05912480\
-9.61985280 -3.84216720 3.07105600 0.60542480 -1.79535440 -4.10283040 -6.60109680 -8.93535040 -10.34996080 -10.40560800\
-7.48433920 -5.87559120 -3.44636080 -0.64391760 1.87526880 3.68945120 4.74298240 5.21033520 4.59445040 1.29160080\
-4.01789520 -8.94497360 -11.91812400 -12.06330880 -8.27386000 4.08483920 2.65516640 1.34431920 -0.06317840 -1.67778400\
-3.75095600 -6.05801360 -7.78516880 -8.22365200 -5.05803760 -3.44426880 -1.32005200 1.02926400 3.20201520 4.99527760\
6.36511920 6.98016720 5.53124800 1.16984640 -4.45888880 -9.20103440 -11.83820960 -11.09262080 3.94760400 2.80453520\
3.55681840 3.67899120 3.08611840 1.90120960 -0.47028160 -3.42042000 -5.51953280 -5.98060960 -2.23174560 -0.87445600\
0.63011040 2.35224480 4.16559040 6.00487680 7.66969040 8.30440320 6.34712800 1.70665360 -3.91036640 -8.52113440\
12.38254800 3.08988400 0.27488880 2.57357840 5.44840480 6.77013040 6.86594400 4.88691200 1.52841520 -1.58908320\
-3.36644640 -3.37816160 0.08326160 0.76483520 1.45770560 2.60997920 4.29864160 6.40068320 8.47845760 9.22906720\
7.16761040 2.48571440 -3.05473840 15.49753600 3.50535520 -2.94344400 -1.56356080 2.88068400 7.04543760 9.15542880\
8.56130080 5.82580160 2.59742720 0.05941280 -1.12842480 -0.85269920 

C NH1 CT C NH1 1 24 24\
2.13551360 1.41709988 -0.42082672 -2.11396600 -2.85934560 -2.21622296 -0.44057520 0.12572920 -1.02533104 -3.82220952\
-7.01702824 -7.93633672 6.15888984 -7.93633672 -7.01702824 -3.82220952 -1.02533104 0.12572920 -0.44057520 -2.21622296\
-2.85934560 -2.11396600 -0.42082672 1.41709988 1.12060490 -1.04968192 -3.66957720 -5.48455456 -5.78689040 -4.60189792\
-2.57060776 -2.10091192 -3.75974240 -6.01742880 -7.96922296 -8.30490528 -7.69471072 -6.88401888 -4.97766296 -2.77834336\
0.18192032 1.54757792 0.45513552 -1.08344680 -1.28963432 -0.38036744 1.01332296 1.87853232 -0.47639024 -3.29983712\
-6.09642272 -7.53910776 -7.06405640 -5.69442400 -4.26609008 -4.46537400 -5.69802224 -7.05874272 -7.27693832 -7.77303520\
-8.33519744 -6.36942872 -4.38638008 -2.25174512 0.27426120 1.57188696 0.23053840 -1.20992912 -1.17779600 -0.24840408\
0.78420712 1.07645952 -1.10871816 -2.92888368 -5.41141824 -7.04669280 -5.77797848 -5.10364320 -5.84839520 -6.47348480\
-6.03793040 -4.51746480 -6.21826080 -9.33617760 -8.25854656 -5.82605264 -3.79647792 -1.47833272 0.54965208 1.12147936\
0.25455456 -1.21653984 -1.47209856 -0.85520960 -0.13200520 0.02158944 -0.30852816 -1.43352208 -2.81302872 -4.41617016\
-5.54714720 -7.00861840 -7.93704800 -7.11280000 -4.36516720 -5.04548560 -9.36253680 -9.73696296 -7.92064672 -6.09382864\
-3.90053400 -0.60546664 0.06911968 0.78090176 0.34057760 -0.85027248 -1.25641336 -1.22691616 -1.03457768 -0.59032056\
1.00687960 0.81525240 -1.08809104 -3.26435680 -5.46765120 -7.30610080 -7.19648000 -5.61199920 -4.21579840 -8.22197840\
-10.45016760 -9.13003192 -7.41869224 -3.94559568 -1.51824808 -2.24505072 -4.12596792 -2.88721104 -0.12472504 0.20815400\
-0.28133216 -0.64785056 -0.81031528 -0.29170848 0.71136368 0.56910768 -0.22806984 -1.81334560 -4.71578640 -5.95717920\
-5.15426960 -3.30410480 -6.46804560 -9.46525400 -10.21916896 -8.05528784 -4.72281552 -2.37387608 -2.07133104 -3.39950000\
-4.31006392 -4.56470216 -2.30760152 0.73550536 0.79822352 0.20932552 -0.34107968 0.20267296 -1.55807976 -0.74567248\
-1.57958552 -2.71696408 -3.47774080 -3.65095840 -1.48992240 -2.97059816 -7.69383208 -10.48891144 -9.81378120 -6.70837456\
-2.53696840 -0.28170872 -0.27936568 -0.53074877 -1.45352578 -2.46893656 -1.94802856 -0.32024336 -0.19434680 -1.11574728\
-1.53322680 -2.00823632 -7.10221448 -5.82174312 -4.40742560 -2.77984960 -1.35436080 0.34936400 1.35310560 -3.32786992\
-9.51449968 -11.43734056 -8.76652600 -2.64537584 0.77956288 2.09986592 2.74657425 2.16551706 0.87800403 -0.62910624\
-1.30946648 -1.97091504 -3.87333800 -5.92977400 -7.16903296 -7.19451352 -11.44252872 -8.21946800 -4.44717360 -0.56400320\
2.43969040 3.96768720 2.70872160 -5.26171472 -11.51189944 -10.52748792 -4.59449224 0.88064832 2.94695856 4.55344720\
4.71850600 3.73129120 2.02936552 0.60416960 -0.78989736 -4.14734816 -9.04907152 -12.69567856 -14.50630456 -13.31716992\
-10.51773920 -4.19989920 2.44931360 9.30061360 10.13783200 4.84967440 -1.28448800 -8.33009296 -10.48117104 -5.84308152\
1.05194128 3.05302296 5.01782936 5.92889536 5.60722944 4.44110680 2.93269112 2.24057384 1.60661416 -5.81889800\
-12.88529744 -16.37387480 -16.57483232 -14.87244640 -1.66272160 8.61987680 3.57104400 -0.50124320 -2.50956320 -3.37732480\
-6.64670240 -7.72960528 -5.37526848 1.82104416 2.54495984 3.78158288 5.14167576 5.29828288 4.61875944 3.93329472\
4.19404160 4.62139536 -1.07470224 -9.22404640 -13.20315592 -15.22264720 -13.66034160 -9.27216240 20.33214800 -0.43388080\
-5.95592400 -9.43073600 -9.61943440 -8.49352000 -5.86416888 -2.29350144 3.43577528 3.26561200 3.11180816 4.13412672\
4.68298384 4.13412672 3.11180816 3.26561200 3.43577528 -2.29350144 -5.86416888 -8.49352000 -9.61943440 -9.43073600\
-5.95592400 -0.43388080 -1.66272160 -9.27216240 -13.66034160 -15.22264720 -13.20315592 -9.22404640 -1.07470224 4.62139536\
4.19404160 3.93329472 4.61875944 5.29828288 5.14167576 3.78158288 2.54495984 1.82104416 -5.37526848 -7.72960528\
-6.64670240 -3.37732480 -2.50956320 -0.50124320 3.57104400 8.61987680 -10.51773920 -14.87244640 -16.57483232 -16.37387480\
-12.88529744 -5.81889800 1.60661416 2.24057384 2.93269112 4.44110680 5.60722944 5.92889536 5.01782936 3.05302296\
1.05194128 -5.84308152 -10.48117104 -8.33009296 -1.28448800 4.84967440 10.13783200 9.30061360 2.44931360 -4.19989920\
-11.44252872 -13.31716992 -14.50630456 -12.69567856 -9.04907152 -4.14734816 -0.78989736 0.60416960 2.02936552 3.73129120\
4.71850600 4.55344720 2.94695856 0.88064832 -4.59449224 -10.52748792 -11.51189944 -5.26171472 2.70872160 3.96768720\
2.43969040 -0.56400320 -4.44717360 -8.21946800 -7.10221448 -7.19451352 -7.16903296 -5.92977400 -3.87333800 -1.97091504\
-1.30946648 -0.62910624 0.87800403 2.16551706 2.74657425 2.09986592 0.77956288 -2.64537584 -8.76652600 -11.43734056\
-9.51449968 -3.32786992 1.35310560 0.34936400 -1.35436080 -2.77984960 -4.40742560 -5.82174312 -1.55807976 -2.00823632\
-1.53322680 -1.11574728 -0.19434680 -0.32024336 -1.94802856 -2.46893656 -1.45352578 -0.53074877 -0.27936568 -0.28170872\
-2.53696840 -6.70837456 -9.81378120 -10.48891144 -7.69383208 -2.97059816 -1.48992240 -3.65095840 -3.47774080 -2.71696408\
-1.57958552 -0.74567248 0.71136368 0.20267296 -0.34107968 0.20932552 0.79822352 0.73550536 -2.30760152 -4.56470216\
-4.31006392 -3.39950000 -2.07133104 -2.37387608 -4.72281552 -8.05528784 -10.21916896 -9.46525400 -6.46804560 -3.30410480\
-5.15426960 -5.95717920 -4.71578640 -1.81334560 -0.22806984 0.56910768 1.00687960 -0.29170848 -0.81031528 -0.64785056\
-0.28133216 0.20815400 -0.12472504 -2.88721104 -4.12596792 -2.24505072 -1.51824808 -3.94559568 -7.41869224 -9.13003192\
-10.45016760 -8.22197840 -4.21579840 -5.61199920 -7.19648000 -7.30610080 -5.46765120 -3.26435680 -1.08809104 0.81525240\
-0.30852816 -0.59032056 -1.03457768 -1.22691616 -1.25641336 -0.85027248 0.34057760 0.78090176 0.06911968 -0.60546664\
-3.90053400 -6.09382864 -7.92064672 -9.73696296 -9.36253680 -5.04548560 -4.36516720 -7.11280000 -7.93704800 -7.00861840\
-5.54714720 -4.41617016 -2.81302872 -1.43352208 -1.10871816 0.02158944 -0.13200520 -0.85520960 -1.47209856 -1.21653984\
0.25455456 1.12147936 0.54965208 -1.47833272 -3.79647792 -5.82605264 -8.25854656 -9.33617760 -6.21826080 -4.51746480\
-6.03793040 -6.47348480 -5.84839520 -5.10364320 -5.77797848 -7.04669280 -5.41141824 -2.92888368 -0.47639024 1.07645952\
0.78420712 -0.24840408 -1.17779600 -1.20992912 0.23053840 1.57188696 0.27426120 -2.25174512 -4.38638008 -6.36942872\
-8.33519744 -7.77303520 -7.27693832 -7.05874272 -5.69802224 -4.46537400 -4.26609008 -5.69442400 -7.06405640 -7.53910776\
-6.09642272 -3.29983712 1.12060490 1.87853232 1.01332296 -0.38036744 -1.28963432 -1.08344680 0.45513552 1.54757792\
0.18192032 -2.77834336 -4.97766296 -6.88401888 -7.69471072 -8.30490528 -7.96922296 -6.01742880 -3.75974240 -2.10091192\
-2.57060776 -4.60189792 -5.78689040 -5.48455456 -3.66957720 -1.04968192 

C N CT2 C N 1 24 24\
10.98551040 8.67050320 8.26340000 5.28857600 6.68603200 5.66890160 3.01331680 -0.08953760 -2.46019200 -4.44801040\
-7.16802880 -11.16876960 -16.09961360 -11.16876960 -7.16802880 -4.44801040 -2.46019200 -0.08953760 3.01331680 5.66890160\
6.68603200 5.28857600 8.26340000 8.67050320 3.55096080 3.80869520 5.30949600 3.83087040 5.14171760 4.75595280\
1.63678080 -2.42797520 -6.40193840 -10.28385360 -13.87121520 -16.85064160 -10.50937120 -5.00992160 -1.74640160 -0.86399600\
-0.25564240 1.42130480 4.13504720 6.21282160 6.61490400 7.61906400 8.62531600 6.80318400 0.34434320 3.21122000\
4.00408800 5.50530720 4.04634640 4.50240240 1.71251120 -2.88277600 -7.03999840 -8.86171200 -18.32340960 -12.08171840\
-5.25635920 -0.30166640 0.46609760 -0.60249600 -0.72090320 0.38116240 2.24429760 3.49196640 3.10243600 2.33258000\
3.77145760 2.53550400 1.12884320 2.26312560 3.86476080 4.17270320 2.51249200 3.03130800 2.27191200 -0.17530960\
-2.55391360 -2.81248480 -13.73481680 -6.93079600 -0.54475680 1.53887520 -0.10501840 -1.54473280 -1.73384960 -1.32883840\
-0.00167360 0.86441440 0.11380480 -1.85225680 1.49326960 1.08030880 1.46398160 1.94556000 2.65600320 2.34387680\
1.17737760 1.35812640 0.62550800 -1.99242080 -4.15554880 -12.26204880 -7.72868480 -1.62464720 2.25350240 1.20499200\
-0.53597040 -1.31210240 -0.68784960 0.26191840 0.14141920 0.40375600 -0.45145360 -2.55056640 1.96815360 1.69912240\
2.07861120 1.40540560 1.07821680 0.18869840 -0.87278240 0.24936640 0.47404720 -1.58992000 -2.96980320 -3.12335600\
-1.12591440 3.22084320 2.50035840 1.46942080 0.32300480 0.55354320 1.47653360 2.49701120 2.56604720 0.97696400\
0.40459280 -0.65479600 3.34176080 2.97649760 1.12089360 -0.74307840 -1.82924480 -2.71583440 -2.82963920 0.01631760\
0.81839040 -0.12384640 -1.28574320 0.14853200 6.72410640 6.20110640 5.84086400 5.12205280 4.33755280 3.50995760\
2.65809520 2.39743200 2.34680560 1.64724080 0.34057760 -0.10460000 4.08191040 3.22419040 -3.35598640 -5.63333760\
-6.37976320 -5.78772720 -3.51246800 1.17612240 2.17609840 -0.59747520 -1.02215120 0.90416240 4.76557600 9.08388240\
8.65460400 5.63668480 12.22313760 4.11956640 1.83677600 0.60040400 0.69496240 0.76232480 -1.17235680 -2.83758880\
0.91420400 -0.44099360 -9.38262000 -10.22988000 -8.60188560 -4.89695360 1.01587520 4.88523840 2.09032640 -0.65688800\
-1.29411120 0.45480080 4.73043040 7.82156960 6.70778880 2.65014560 7.80650720 5.30196480 3.06310640 1.59033840\
0.94767600 -0.21129200 -4.31286720 -6.70318640 -6.05299280 -7.04250880 -9.00815200 -6.75841520 -1.84890960 3.91706080\
7.99646080 6.23541520 1.23720880 -2.19450800 -2.72252880 0.10418160 4.61453360 7.56341680 6.79690800 4.16768240\
13.80176080 11.07379280 9.00396800 8.19520080 6.59314720 1.11838320 -6.75004720 -11.63403040 -10.00143360 -9.05124720\
1.66606880 6.42746080 12.81308160 5.65634960 3.48192480 -0.04393200 -4.69528480 -6.20068800 -3.22335360 1.28783520\
7.50944320 11.11395920 11.83109680 11.24952080 13.64360560 11.18508720 9.72445280 7.45714320 4.88021760 -1.30582640\
-9.39810080 -10.42318080 -5.07310000 -1.05980720 13.88167520 28.60726320 24.32033680 2.44764000 -1.55519280 -6.35424080\
-8.84999680 -5.58312960 -1.25771040 5.96387360 11.98632320 15.08541200 16.40002480 16.83265040 14.30300400 11.36834640\
7.78349520 2.40663680 -1.22716720 -7.04418240 -10.60978720 -6.46051440 2.53717760 9.89767040 20.13508160 17.02595120\
8.67552400 -2.30371040 -7.29689600 -9.58010480 -6.76678320 -2.06313040 3.79028560 9.95499120 14.01932880 19.54304560\
18.50290320 19.54304560 14.01932880 9.95499120 3.79028560 -2.06313040 -6.76678320 -9.58010480 -7.29689600 -2.30371040\
8.67552400 17.02595120 13.88167520 9.89767040 2.53717760 -6.46051440 -10.60978720 -7.04418240 -1.22716720 2.40663680\
7.78349520 11.36834640 14.30300400 16.83265040 16.40002480 15.08541200 11.98632320 5.96387360 -1.25771040 -5.58312960\
-8.84999680 -6.35424080 -1.55519280 2.44764000 24.32033680 28.60726320 1.66606880 -1.05980720 -5.07310000 -10.42318080\
-9.39810080 -1.30582640 4.88021760 7.45714320 9.72445280 11.18508720 13.64360560 11.24952080 11.83109680 11.11395920\
7.50944320 1.28783520 -3.22335360 -6.20068800 -4.69528480 -0.04393200 3.48192480 5.65634960 12.81308160 6.42746080\
-9.00815200 -9.05124720 -10.00143360 -11.63403040 -6.75004720 1.11838320 6.59314720 8.19520080 9.00396800 11.07379280\
13.80176080 4.16768240 6.79690800 7.56341680 4.61453360 0.10418160 -2.72252880 -2.19450800 1.23720880 6.23541520\
7.99646080 3.91706080 -1.84890960 -6.75841520 -9.38262000 -7.04250880 -6.05299280 -6.70318640 -4.31286720 -0.21129200\
0.94767600 1.59033840 3.06310640 5.30196480 7.80650720 2.65014560 6.70778880 7.82156960 4.73043040 0.45480080\
-1.29411120 -0.65688800 2.09032640 4.88523840 1.01587520 -4.89695360 -8.60188560 -10.22988000 -3.35598640 -0.44099360\
0.91420400 -2.83758880 -1.17235680 0.76232480 0.69496240 0.60040400 1.83677600 4.11956640 12.22313760 5.63668480\
8.65460400 9.08388240 4.76557600 0.90416240 -1.02215120 -0.59747520 2.17609840 1.17612240 -3.51246800 -5.78772720\
-6.37976320 -5.63333760 1.12089360 3.22419040 4.08191040 -0.10460000 0.34057760 1.64724080 2.34680560 2.39743200\
2.65809520 3.50995760 4.33755280 5.12205280 5.84086400 6.20110640 6.72410640 0.14853200 -1.28574320 -0.12384640\
0.81839040 0.01631760 -2.82963920 -2.71583440 -1.82924480 -0.74307840 2.07861120 2.97649760 3.34176080 -0.65479600\
0.40459280 0.97696400 2.56604720 2.49701120 1.47653360 0.55354320 0.32300480 1.46942080 2.50035840 3.22084320\
-1.12591440 -3.12335600 -2.96980320 -1.58992000 0.47404720 0.24936640 -0.87278240 0.18869840 1.07821680 1.40540560\
1.46398160 1.69912240 1.96815360 -2.55056640 -0.45145360 0.40375600 0.14141920 0.26191840 -0.68784960 -1.31210240\
-0.53597040 1.20499200 2.25350240 -1.62464720 -7.72868480 -12.26204880 -4.15554880 -1.99242080 0.62550800 1.35812640\
1.17737760 2.34387680 2.65600320 1.94556000 1.12884320 1.08030880 1.49326960 -1.85225680 0.11380480 0.86441440\
-0.00167360 -1.32883840 -1.73384960 -1.54473280 -0.10501840 1.53887520 -0.54475680 -6.93079600 -13.73481680 -2.81248480\
-2.55391360 -0.17530960 2.27191200 3.03130800 2.51249200 4.17270320 3.86476080 2.26312560 0.34434320 2.53550400\
3.77145760 2.33258000 3.10243600 3.49196640 2.24429760 0.38116240 -0.72090320 -0.60249600 0.46609760 -0.30166640\
-5.25635920 -12.08171840 -18.32340960 -8.86171200 -7.03999840 -2.88277600 1.71251120 4.50240240 4.04634640 5.50530720\
4.00408800 3.21122000 3.55096080 6.80318400 8.62531600 7.61906400 6.61490400 6.21282160 4.13504720 1.42130480\
-0.25564240 -0.86399600 -1.74640160 -5.00992160 -10.50937120 -16.85064160 -13.87121520 -10.28385360 -6.40193840 -2.42797520\
1.63678080 4.75595280 5.14171760 3.83087040 5.30949600 3.80869520 

CG2O1 NH1 CT1 C NH1 1 24 24\
0.53048936 3.21624080 4.06375184 5.23405848 8.87430584 11.38227912 8.74221696 7.48848136 3.26716008 -2.88057522\
4.18872792 -9.20697568 -20.19897128 -20.17293425 -20.55692503 -15.02518750 -11.57481006 -11.64909280 -10.27000038 -9.81981034\
-9.77110440 -6.37079270 -3.98125173 -0.15334360 -0.53192447 5.76174456 6.59825168 7.83366136 10.03737416 10.40405992\
10.19537874 8.07122888 4.54573190 2.69198560 1.08230038 -11.71704096 -16.77565177 -17.30212030 -14.30965656 -10.88735376\
-9.61955155 -6.28119234 -4.60984752 -3.60423986 -2.67846291 -0.86902098 -4.50342330 -4.69457352 0.35174470 5.94260633\
6.79628040 8.56548480 11.10395944 11.36545944 9.71280454 8.30713954 6.51643774 10.30641791 -0.94441248 -7.59766702\
-10.80834310 -12.57774834 -10.67754708 -7.91061767 -5.66603556 -3.04278471 0.28665421 -0.94146694 -3.20276414 -5.36992970\
-5.41085758 -3.41541175 3.88271853 6.36541208 9.38144011 10.65374012 13.01803066 12.21062744 10.29604159 9.15446648\
8.61198578 7.74993115 0.48507204 -4.95342505 -8.34908414 -9.53252854 -8.19702502 -5.60851393 -3.90345862 0.09116936\
1.31262540 -2.16462587 -4.82369594 -4.11406444 -2.37031131 -1.85169196 5.67964611 8.19712544 11.29217250 12.71039369\
15.47644864 14.88856735 11.04281446 11.60580095 11.37907418 6.81153945 2.95251073 -3.28710521 -8.86283331 -10.99759798\
-7.54422479 -1.78225430 -0.26074688 1.83694336 3.81142317 -2.28862290 -4.05060571 -3.58481354 -1.04648534 1.87990886\
8.55630510 10.64587002 11.79063752 12.92262709 14.10267408 14.85976051 12.85960768 12.14947410 12.37055666 8.88999166\
3.79274161 -3.44605955 -8.74798670 -9.37876654 -6.09409642 0.86257344 0.34390388 3.22883464 4.35236834 -0.52152305\
-1.32444520 -0.68756927 1.31575922 3.06999745 6.07405924 11.49964450 11.45656604 13.20803446 14.43491715 13.99195289\
13.30595680 16.31226122 13.95376552 10.21138254 3.81861546 -2.53760437 -6.32525405 -6.78169498 -4.02834683 -0.08641215\
1.73700015 3.80011800 1.92226767 0.61048744 -0.29728994 0.07373045 1.17503038 3.13307543 5.76622144 13.99948827\
9.84254202 12.81786391 15.95806888 15.48413046 14.98001704 17.62423391 14.79640220 7.08689686 0.39819965 -2.85537917\
-0.51720098 -1.78976876 -2.50357171 0.94705677 1.77112067 1.26356382 2.30910776 0.80215230 -1.06099964 -0.79725283\
-1.06027581 1.96196965 0.99476274 5.14623632 7.18376064 13.25729688 17.60706696 18.37554224 17.89111872 15.36827969\
9.50728228 -2.01998918 -1.70161188 -0.16283710 -1.49619840 -3.44485874 -0.72444286 0.58494830 1.12045846 1.34900528\
1.29563418 -2.78821342 -3.96907210 -6.41978316 -6.19218611 -0.85464058 -4.95735801 0.32660304 9.82156344 17.62028840\
22.49318400 22.55150896 18.32675680 10.29894110 4.70161519 0.44775494 0.03168962 -0.62526951 -3.33561032 -2.43596664\
0.34689544 1.13629072 -0.19066488 1.58753512 1.03666968 -3.72775990 -6.62088712 -8.17776189 -8.28835756 -8.36981167\
-4.91502848 4.46445352 17.49104464 28.20689624 25.40010168 20.11027048 11.64549456 5.52625230 3.20485195 -0.03534643\
1.15838224 -2.95867376 5.49928224 6.37051656 8.01466120 9.30308216 0.81290936 2.23425600 1.38816752 -6.67409505\
-11.92080594 -14.85514556 -13.71251190 -11.10908484 1.22838056 23.38048488 15.61728208 13.46252208 13.69193080 10.53246688\
6.64712080 5.78128384 3.58321944 2.74123128 6.76540248 3.54351328 2.13831688 3.09933984 4.27194768 6.76377072\
-1.43260160 0.76052568 -2.56864128 -10.70282681 -15.84413438 -15.92984780 -13.20196766 -7.31866954 11.85038504 3.29695016\
1.35260352 2.00509832 2.63006240 4.08496472 5.18293000 6.99543880 6.88468832 10.54510256 6.72356248 3.24824840\
0.50115952 0.29451176 0.50697528 -6.56565832 -5.07523384 -7.72517024 -11.48302984 -15.86794552 -16.46353792 -15.12905112\
-11.19533800 -3.86672728 -3.25657456 -8.00265312 -8.58615376 -7.72483552 -4.38244712 0.76734560 7.04146280 9.30312400\
5.68342008 10.24519344 6.01207328 2.83913688 -0.99185904 -2.23977888 -3.30694992 -9.13191472 -13.60276976 -17.55234024\
-17.86262568 -16.35195064 -14.45831408 -11.60629048 7.34446808 1.31130744 -12.40058104 -14.57592632 -14.40052886 -10.04306022\
-4.70734727 1.40666080 5.97663480 5.83513192 4.06002808 10.30402048 6.36984712 2.31634608 -1.70447792 -6.20466280\
-15.12064128 -17.40464504 -19.70547266 -18.81239786 -15.75083536 -12.38104176 -8.21674840 -4.48215184 -6.69264272 -10.23121888\
-16.82593926 -16.05212102 -14.08052817 -9.76703337 -4.12008940 1.51460800 3.40736592 3.15519624 2.10191608 7.96390928\
3.22260048 -1.74230128 -13.74992104 -16.21412968 -19.29472520 -22.12489577 -21.53186398 -16.89761537 -11.98904280 -9.90842328\
-11.96829016 -14.29488704 -15.34059416 -15.04238793 -14.03180967 -12.48679654 -9.69605181 -5.18875831 -1.07901176 3.02340024\
2.79520488 1.83313592 10.02206072 6.83025448 -8.54142680 -13.46453040 -16.38069472 -19.11491362 -21.32491078 -23.12477972\
-20.94222541 -15.80664574 -11.88539675 -14.68090288 -15.71690312 -15.23314904 -14.44251948 -13.98631704 -9.40869887 -6.86627872\
-4.22827927 0.16592070 2.66128759 3.44640264 2.16371376 -0.05489408 -1.55188744 -4.99071286 -9.64683960 -14.31170672\
-18.76507264 -23.41883961 -23.43568858 -23.96485998 -19.83435660 -15.98027755 -15.41866760 -17.36929024 -17.45037198 -15.58786438\
-15.63448669 -10.96489583 -7.19999456 -4.92804072 -1.79255112 1.16202232 3.38025360 3.36083984 2.01882184 -1.40958960\
-3.28975368 -7.42270888 -11.68683248 -16.01869504 -21.80617120 -26.33546835 -27.68645266 -24.11637935 -21.22541108 -16.36550680\
-17.39835230 -18.71675999 -17.15157580 -15.77293525 -13.21014320 -11.09468770 -7.74307776 -4.57068528 -1.86196368 0.53760216\
4.20709568 3.70208688 2.03279640 -0.91407848 -3.58849128 -7.03886872 -12.61224960 -18.74896424 -25.32788584 -28.72483360\
-28.74880792 -23.96695616 -16.36877032 -20.09202824 -21.06493376 -19.73170216 -19.24871794 -17.09884066 -13.70105192 -10.08737296\
-8.23925832 -4.67206360 -2.26040600 -0.62898072 3.19456768 4.34671576 3.17348032 1.31180952 -1.39348120 -7.83566968\
-14.08447368 -20.95455984 -25.62620504 -29.43372872 -28.13455488 -15.48163680 -18.87243408 -21.69675960 -22.43301808 -20.28189816\
-18.59503488 -16.75382384 -14.29137248 -11.51114632 -8.83347000 -4.89092864 -1.35055336 -0.02895328 1.32490544 4.54495368\
3.92948728 2.61642256 -0.69605024 -7.65801704 -14.51626248 -20.69418952 -25.57495104 -8.01478672 -16.93394504 -20.90636016\
-20.90631832 -20.26181496 -20.44561808 -17.99345936 -18.80549008 -18.58620664 -17.42037688 -13.31980584 -7.35375656 -1.68874608\
0.10008128 1.51623976 2.65483168 5.29242528 5.69593024 3.96818928 -0.30827712 -6.20721504 -13.19139888 7.67814208\
-7.37580624 -21.31187344 -24.03636872 -22.55205288 -20.01596312 -17.53359592 -17.21891728 -16.91289952 -17.26138488 -16.85545320\
-16.84520240 -12.29221544 -3.39150856 -0.29915600 1.58527576 2.27320904 5.34664992 6.86724104 7.10794656 6.35947080\
2.64407880 -4.55499528 -11.44964152 -3.07624416 -19.09506472 -26.81253640 -24.64145880 -21.51308200 -17.55175448 -15.34059416\
-16.08099480 -14.87412000 -14.84785285 -13.58542708 -11.51139318 -7.59131571 

C NH1 CT1 C NG2S0 1 24 24\
0.53048936 3.21624080 4.06375184 5.23405848 8.87430584 11.38227912 8.74221696 7.48848136 3.26716008 -2.88057522\
4.18872792 -9.20697568 -20.19897128 -20.17293425 -20.55692503 -15.02518750 -11.57481006 -11.64909280 -10.27000038 -9.81981034\
-9.77110440 -6.37079270 -3.98125173 -0.15334360 -0.53192447 5.76174456 6.59825168 7.83366136 10.03737416 10.40405992\
10.19537874 8.07122888 4.54573190 2.69198560 1.08230038 -11.71704096 -16.77565177 -17.30212030 -14.30965656 -10.88735376\
-9.61955155 -6.28119234 -4.60984752 -3.60423986 -2.67846291 -0.86902098 -4.50342330 -4.69457352 0.35174470 5.94260633\
6.79628040 8.56548480 11.10395944 11.36545944 9.71280454 8.30713954 6.51643774 10.30641791 -0.94441248 -7.59766702\
-10.80834310 -12.57774834 -10.67754708 -7.91061767 -5.66603556 -3.04278471 0.28665421 -0.94146694 -3.20276414 -5.36992970\
-5.41085758 -3.41541175 3.88271853 6.36541208 9.38144011 10.65374012 13.01803066 12.21062744 10.29604159 9.15446648\
8.61198578 7.74993115 0.48507204 -4.95342505 -8.34908414 -9.53252854 -8.19702502 -5.60851393 -3.90345862 0.09116936\
1.31262540 -2.16462587 -4.82369594 -4.11406444 -2.37031131 -1.85169196 5.67964611 8.19712544 11.29217250 12.71039369\
15.47644864 14.88856735 11.04281446 11.60580095 11.37907418 6.81153945 2.95251073 -3.28710521 -8.86283331 -10.99759798\
-7.54422479 -1.78225430 -0.26074688 1.83694336 3.81142317 -2.28862290 -4.05060571 -3.58481354 -1.04648534 1.87990886\
8.55630510 10.64587002 11.79063752 12.92262709 14.10267408 14.85976051 12.85960768 12.14947410 12.37055666 8.88999166\
3.79274161 -3.44605955 -8.74798670 -9.37876654 -6.09409642 0.86257344 0.34390388 3.22883464 4.35236834 -0.52152305\
-1.32444520 -0.68756927 1.31575922 3.06999745 6.07405924 11.49964450 11.45656604 13.20803446 14.43491715 13.99195289\
13.30595680 16.31226122 13.95376552 10.21138254 3.81861546 -2.53760437 -6.32525405 -6.78169498 -4.02834683 -0.08641215\
1.73700015 3.80011800 1.92226767 0.61048744 -0.29728994 0.07373045 1.17503038 3.13307543 5.76622144 13.99948827\
9.84254202 12.81786391 15.95806888 15.48413046 14.98001704 17.62423391 14.79640220 7.08689686 0.39819965 -2.85537917\
-0.51720098 -1.78976876 -2.50357171 0.94705677 1.77112067 1.26356382 2.30910776 0.80215230 -1.06099964 -0.79725283\
-1.06027581 1.96196965 0.99476274 5.14623632 7.18376064 13.25729688 17.60706696 18.37554224 17.89111872 15.36827969\
9.50728228 -2.01998918 -1.70161188 -0.16283710 -1.49619840 -3.44485874 -0.72444286 0.58494830 1.12045846 1.34900528\
1.29563418 -2.78821342 -3.96907210 -6.41978316 -6.19218611 -0.85464058 -4.95735801 0.32660304 9.82156344 17.62028840\
22.49318400 22.55150896 18.32675680 10.29894110 4.70161519 0.44775494 0.03168962 -0.62526951 -3.33561032 -2.43596664\
0.34689544 1.13629072 -0.19066488 1.58753512 1.03666968 -3.72775990 -6.62088712 -8.17776189 -8.28835756 -8.36981167\
-4.91502848 4.46445352 17.49104464 28.20689624 25.40010168 20.11027048 11.64549456 5.52625230 3.20485195 -0.03534643\
1.15838224 -2.95867376 5.49928224 6.37051656 8.01466120 9.30308216 0.81290936 2.23425600 1.38816752 -6.67409505\
-11.92080594 -14.85514556 -13.71251190 -11.10908484 1.22838056 23.38048488 15.61728208 13.46252208 13.69193080 10.53246688\
6.64712080 5.78128384 3.58321944 2.74123128 6.76540248 3.54351328 2.13831688 3.09933984 4.27194768 6.76377072\
-1.43260160 0.76052568 -2.56864128 -10.70282681 -15.84413438 -15.92984780 -13.20196766 -7.31866954 11.85038504 3.29695016\
1.35260352 2.00509832 2.63006240 4.08496472 5.18293000 6.99543880 6.88468832 10.54510256 6.72356248 3.24824840\
0.50115952 0.29451176 0.50697528 -6.56565832 -5.07523384 -7.72517024 -11.48302984 -15.86794552 -16.46353792 -15.12905112\
-11.19533800 -3.86672728 -3.25657456 -8.00265312 -8.58615376 -7.72483552 -4.38244712 0.76734560 7.04146280 9.30312400\
5.68342008 10.24519344 6.01207328 2.83913688 -0.99185904 -2.23977888 -3.30694992 -9.13191472 -13.60276976 -17.55234024\
-17.86262568 -16.35195064 -14.45831408 -11.60629048 7.34446808 1.31130744 -12.40058104 -14.57592632 -14.40052886 -10.04306022\
-4.70734727 1.40666080 5.97663480 5.83513192 4.06002808 10.30402048 6.36984712 2.31634608 -1.70447792 -6.20466280\
-15.12064128 -17.40464504 -19.70547266 -18.81239786 -15.75083536 -12.38104176 -8.21674840 -4.48215184 -6.69264272 -10.23121888\
-16.82593926 -16.05212102 -14.08052817 -9.76703337 -4.12008940 1.51460800 3.40736592 3.15519624 2.10191608 7.96390928\
3.22260048 -1.74230128 -13.74992104 -16.21412968 -19.29472520 -22.12489577 -21.53186398 -16.89761537 -11.98904280 -9.90842328\
-11.96829016 -14.29488704 -15.34059416 -15.04238793 -14.03180967 -12.48679654 -9.69605181 -5.18875831 -1.07901176 3.02340024\
2.79520488 1.83313592 10.02206072 6.83025448 -8.54142680 -13.46453040 -16.38069472 -19.11491362 -21.32491078 -23.12477972\
-20.94222541 -15.80664574 -11.88539675 -14.68090288 -15.71690312 -15.23314904 -14.44251948 -13.98631704 -9.40869887 -6.86627872\
-4.22827927 0.16592070 2.66128759 3.44640264 2.16371376 -0.05489408 -1.55188744 -4.99071286 -9.64683960 -14.31170672\
-18.76507264 -23.41883961 -23.43568858 -23.96485998 -19.83435660 -15.98027755 -15.41866760 -17.36929024 -17.45037198 -15.58786438\
-15.63448669 -10.96489583 -7.19999456 -4.92804072 -1.79255112 1.16202232 3.38025360 3.36083984 2.01882184 -1.40958960\
-3.28975368 -7.42270888 -11.68683248 -16.01869504 -21.80617120 -26.33546835 -27.68645266 -24.11637935 -21.22541108 -16.36550680\
-17.39835230 -18.71675999 -17.15157580 -15.77293525 -13.21014320 -11.09468770 -7.74307776 -4.57068528 -1.86196368 0.53760216\
4.20709568 3.70208688 2.03279640 -0.91407848 -3.58849128 -7.03886872 -12.61224960 -18.74896424 -25.32788584 -28.72483360\
-28.74880792 -23.96695616 -16.36877032 -20.09202824 -21.06493376 -19.73170216 -19.24871794 -17.09884066 -13.70105192 -10.08737296\
-8.23925832 -4.67206360 -2.26040600 -0.62898072 3.19456768 4.34671576 3.17348032 1.31180952 -1.39348120 -7.83566968\
-14.08447368 -20.95455984 -25.62620504 -29.43372872 -28.13455488 -15.48163680 -18.87243408 -21.69675960 -22.43301808 -20.28189816\
-18.59503488 -16.75382384 -14.29137248 -11.51114632 -8.83347000 -4.89092864 -1.35055336 -0.02895328 1.32490544 4.54495368\
3.92948728 2.61642256 -0.69605024 -7.65801704 -14.51626248 -20.69418952 -25.57495104 -8.01478672 -16.93394504 -20.90636016\
-20.90631832 -20.26181496 -20.44561808 -17.99345936 -18.80549008 -18.58620664 -17.42037688 -13.31980584 -7.35375656 -1.68874608\
0.10008128 1.51623976 2.65483168 5.29242528 5.69593024 3.96818928 -0.30827712 -6.20721504 -13.19139888 7.67814208\
-7.37580624 -21.31187344 -24.03636872 -22.55205288 -20.01596312 -17.53359592 -17.21891728 -16.91289952 -17.26138488 -16.85545320\
-16.84520240 -12.29221544 -3.39150856 -0.29915600 1.58527576 2.27320904 5.34664992 6.86724104 7.10794656 6.35947080\
2.64407880 -4.55499528 -11.44964152 -3.07624416 -19.09506472 -26.81253640 -24.64145880 -21.51308200 -17.55175448 -15.34059416\
-16.08099480 -14.87412000 -14.84785285 -13.58542708 -11.51139318 -7.59131571 

C NH1 CT1 C NG2S1 1 24 24\
0.53048936 3.21624080 4.06375184 5.23405848 8.87430584 11.38227912 8.74221696 7.48848136 3.26716008 -2.88057522\
4.18872792 -9.20697568 -20.19897128 -20.17293425 -20.55692503 -15.02518750 -11.57481006 -11.64909280 -10.27000038 -9.81981034\
-9.77110440 -6.37079270 -3.98125173 -0.15334360 -0.53192447 5.76174456 6.59825168 7.83366136 10.03737416 10.40405992\
10.19537874 8.07122888 4.54573190 2.69198560 1.08230038 -11.71704096 -16.77565177 -17.30212030 -14.30965656 -10.88735376\
-9.61955155 -6.28119234 -4.60984752 -3.60423986 -2.67846291 -0.86902098 -4.50342330 -4.69457352 0.35174470 5.94260633\
6.79628040 8.56548480 11.10395944 11.36545944 9.71280454 8.30713954 6.51643774 10.30641791 -0.94441248 -7.59766702\
-10.80834310 -12.57774834 -10.67754708 -7.91061767 -5.66603556 -3.04278471 0.28665421 -0.94146694 -3.20276414 -5.36992970\
-5.41085758 -3.41541175 3.88271853 6.36541208 9.38144011 10.65374012 13.01803066 12.21062744 10.29604159 9.15446648\
8.61198578 7.74993115 0.48507204 -4.95342505 -8.34908414 -9.53252854 -8.19702502 -5.60851393 -3.90345862 0.09116936\
1.31262540 -2.16462587 -4.82369594 -4.11406444 -2.37031131 -1.85169196 5.67964611 8.19712544 11.29217250 12.71039369\
15.47644864 14.88856735 11.04281446 11.60580095 11.37907418 6.81153945 2.95251073 -3.28710521 -8.86283331 -10.99759798\
-7.54422479 -1.78225430 -0.26074688 1.83694336 3.81142317 -2.28862290 -4.05060571 -3.58481354 -1.04648534 1.87990886\
8.55630510 10.64587002 11.79063752 12.92262709 14.10267408 14.85976051 12.85960768 12.14947410 12.37055666 8.88999166\
3.79274161 -3.44605955 -8.74798670 -9.37876654 -6.09409642 0.86257344 0.34390388 3.22883464 4.35236834 -0.52152305\
-1.32444520 -0.68756927 1.31575922 3.06999745 6.07405924 11.49964450 11.45656604 13.20803446 14.43491715 13.99195289\
13.30595680 16.31226122 13.95376552 10.21138254 3.81861546 -2.53760437 -6.32525405 -6.78169498 -4.02834683 -0.08641215\
1.73700015 3.80011800 1.92226767 0.61048744 -0.29728994 0.07373045 1.17503038 3.13307543 5.76622144 13.99948827\
9.84254202 12.81786391 15.95806888 15.48413046 14.98001704 17.62423391 14.79640220 7.08689686 0.39819965 -2.85537917\
-0.51720098 -1.78976876 -2.50357171 0.94705677 1.77112067 1.26356382 2.30910776 0.80215230 -1.06099964 -0.79725283\
-1.06027581 1.96196965 0.99476274 5.14623632 7.18376064 13.25729688 17.60706696 18.37554224 17.89111872 15.36827969\
9.50728228 -2.01998918 -1.70161188 -0.16283710 -1.49619840 -3.44485874 -0.72444286 0.58494830 1.12045846 1.34900528\
1.29563418 -2.78821342 -3.96907210 -6.41978316 -6.19218611 -0.85464058 -4.95735801 0.32660304 9.82156344 17.62028840\
22.49318400 22.55150896 18.32675680 10.29894110 4.70161519 0.44775494 0.03168962 -0.62526951 -3.33561032 -2.43596664\
0.34689544 1.13629072 -0.19066488 1.58753512 1.03666968 -3.72775990 -6.62088712 -8.17776189 -8.28835756 -8.36981167\
-4.91502848 4.46445352 17.49104464 28.20689624 25.40010168 20.11027048 11.64549456 5.52625230 3.20485195 -0.03534643\
1.15838224 -2.95867376 5.49928224 6.37051656 8.01466120 9.30308216 0.81290936 2.23425600 1.38816752 -6.67409505\
-11.92080594 -14.85514556 -13.71251190 -11.10908484 1.22838056 23.38048488 15.61728208 13.46252208 13.69193080 10.53246688\
6.64712080 5.78128384 3.58321944 2.74123128 6.76540248 3.54351328 2.13831688 3.09933984 4.27194768 6.76377072\
-1.43260160 0.76052568 -2.56864128 -10.70282681 -15.84413438 -15.92984780 -13.20196766 -7.31866954 11.85038504 3.29695016\
1.35260352 2.00509832 2.63006240 4.08496472 5.18293000 6.99543880 6.88468832 10.54510256 6.72356248 3.24824840\
0.50115952 0.29451176 0.50697528 -6.56565832 -5.07523384 -7.72517024 -11.48302984 -15.86794552 -16.46353792 -15.12905112\
-11.19533800 -3.86672728 -3.25657456 -8.00265312 -8.58615376 -7.72483552 -4.38244712 0.76734560 7.04146280 9.30312400\
5.68342008 10.24519344 6.01207328 2.83913688 -0.99185904 -2.23977888 -3.30694992 -9.13191472 -13.60276976 -17.55234024\
-17.86262568 -16.35195064 -14.45831408 -11.60629048 7.34446808 1.31130744 -12.40058104 -14.57592632 -14.40052886 -10.04306022\
-4.70734727 1.40666080 5.97663480 5.83513192 4.06002808 10.30402048 6.36984712 2.31634608 -1.70447792 -6.20466280\
-15.12064128 -17.40464504 -19.70547266 -18.81239786 -15.75083536 -12.38104176 -8.21674840 -4.48215184 -6.69264272 -10.23121888\
-16.82593926 -16.05212102 -14.08052817 -9.76703337 -4.12008940 1.51460800 3.40736592 3.15519624 2.10191608 7.96390928\
3.22260048 -1.74230128 -13.74992104 -16.21412968 -19.29472520 -22.12489577 -21.53186398 -16.89761537 -11.98904280 -9.90842328\
-11.96829016 -14.29488704 -15.34059416 -15.04238793 -14.03180967 -12.48679654 -9.69605181 -5.18875831 -1.07901176 3.02340024\
2.79520488 1.83313592 10.02206072 6.83025448 -8.54142680 -13.46453040 -16.38069472 -19.11491362 -21.32491078 -23.12477972\
-20.94222541 -15.80664574 -11.88539675 -14.68090288 -15.71690312 -15.23314904 -14.44251948 -13.98631704 -9.40869887 -6.86627872\
-4.22827927 0.16592070 2.66128759 3.44640264 2.16371376 -0.05489408 -1.55188744 -4.99071286 -9.64683960 -14.31170672\
-18.76507264 -23.41883961 -23.43568858 -23.96485998 -19.83435660 -15.98027755 -15.41866760 -17.36929024 -17.45037198 -15.58786438\
-15.63448669 -10.96489583 -7.19999456 -4.92804072 -1.79255112 1.16202232 3.38025360 3.36083984 2.01882184 -1.40958960\
-3.28975368 -7.42270888 -11.68683248 -16.01869504 -21.80617120 -26.33546835 -27.68645266 -24.11637935 -21.22541108 -16.36550680\
-17.39835230 -18.71675999 -17.15157580 -15.77293525 -13.21014320 -11.09468770 -7.74307776 -4.57068528 -1.86196368 0.53760216\
4.20709568 3.70208688 2.03279640 -0.91407848 -3.58849128 -7.03886872 -12.61224960 -18.74896424 -25.32788584 -28.72483360\
-28.74880792 -23.96695616 -16.36877032 -20.09202824 -21.06493376 -19.73170216 -19.24871794 -17.09884066 -13.70105192 -10.08737296\
-8.23925832 -4.67206360 -2.26040600 -0.62898072 3.19456768 4.34671576 3.17348032 1.31180952 -1.39348120 -7.83566968\
-14.08447368 -20.95455984 -25.62620504 -29.43372872 -28.13455488 -15.48163680 -18.87243408 -21.69675960 -22.43301808 -20.28189816\
-18.59503488 -16.75382384 -14.29137248 -11.51114632 -8.83347000 -4.89092864 -1.35055336 -0.02895328 1.32490544 4.54495368\
3.92948728 2.61642256 -0.69605024 -7.65801704 -14.51626248 -20.69418952 -25.57495104 -8.01478672 -16.93394504 -20.90636016\
-20.90631832 -20.26181496 -20.44561808 -17.99345936 -18.80549008 -18.58620664 -17.42037688 -13.31980584 -7.35375656 -1.68874608\
0.10008128 1.51623976 2.65483168 5.29242528 5.69593024 3.96818928 -0.30827712 -6.20721504 -13.19139888 7.67814208\
-7.37580624 -21.31187344 -24.03636872 -22.55205288 -20.01596312 -17.53359592 -17.21891728 -16.91289952 -17.26138488 -16.85545320\
-16.84520240 -12.29221544 -3.39150856 -0.29915600 1.58527576 2.27320904 5.34664992 6.86724104 7.10794656 6.35947080\
2.64407880 -4.55499528 -11.44964152 -3.07624416 -19.09506472 -26.81253640 -24.64145880 -21.51308200 -17.55175448 -15.34059416\
-16.08099480 -14.87412000 -14.84785285 -13.58542708 -11.51139318 -7.59131571 

C NH1 CT1 C NG2D1 1 24 24\
0.53048936 3.21624080 4.06375184 5.23405848 8.87430584 11.38227912 8.74221696 7.48848136 3.26716008 -2.88057522\
4.18872792 -9.20697568 -20.19897128 -20.17293425 -20.55692503 -15.02518750 -11.57481006 -11.64909280 -10.27000038 -9.81981034\
-9.77110440 -6.37079270 -3.98125173 -0.15334360 -0.53192447 5.76174456 6.59825168 7.83366136 10.03737416 10.40405992\
10.19537874 8.07122888 4.54573190 2.69198560 1.08230038 -11.71704096 -16.77565177 -17.30212030 -14.30965656 -10.88735376\
-9.61955155 -6.28119234 -4.60984752 -3.60423986 -2.67846291 -0.86902098 -4.50342330 -4.69457352 0.35174470 5.94260633\
6.79628040 8.56548480 11.10395944 11.36545944 9.71280454 8.30713954 6.51643774 10.30641791 -0.94441248 -7.59766702\
-10.80834310 -12.57774834 -10.67754708 -7.91061767 -5.66603556 -3.04278471 0.28665421 -0.94146694 -3.20276414 -5.36992970\
-5.41085758 -3.41541175 3.88271853 6.36541208 9.38144011 10.65374012 13.01803066 12.21062744 10.29604159 9.15446648\
8.61198578 7.74993115 0.48507204 -4.95342505 -8.34908414 -9.53252854 -8.19702502 -5.60851393 -3.90345862 0.09116936\
1.31262540 -2.16462587 -4.82369594 -4.11406444 -2.37031131 -1.85169196 5.67964611 8.19712544 11.29217250 12.71039369\
15.47644864 14.88856735 11.04281446 11.60580095 11.37907418 6.81153945 2.95251073 -3.28710521 -8.86283331 -10.99759798\
-7.54422479 -1.78225430 -0.26074688 1.83694336 3.81142317 -2.28862290 -4.05060571 -3.58481354 -1.04648534 1.87990886\
8.55630510 10.64587002 11.79063752 12.92262709 14.10267408 14.85976051 12.85960768 12.14947410 12.37055666 8.88999166\
3.79274161 -3.44605955 -8.74798670 -9.37876654 -6.09409642 0.86257344 0.34390388 3.22883464 4.35236834 -0.52152305\
-1.32444520 -0.68756927 1.31575922 3.06999745 6.07405924 11.49964450 11.45656604 13.20803446 14.43491715 13.99195289\
13.30595680 16.31226122 13.95376552 10.21138254 3.81861546 -2.53760437 -6.32525405 -6.78169498 -4.02834683 -0.08641215\
1.73700015 3.80011800 1.92226767 0.61048744 -0.29728994 0.07373045 1.17503038 3.13307543 5.76622144 13.99948827\
9.84254202 12.81786391 15.95806888 15.48413046 14.98001704 17.62423391 14.79640220 7.08689686 0.39819965 -2.85537917\
-0.51720098 -1.78976876 -2.50357171 0.94705677 1.77112067 1.26356382 2.30910776 0.80215230 -1.06099964 -0.79725283\
-1.06027581 1.96196965 0.99476274 5.14623632 7.18376064 13.25729688 17.60706696 18.37554224 17.89111872 15.36827969\
9.50728228 -2.01998918 -1.70161188 -0.16283710 -1.49619840 -3.44485874 -0.72444286 0.58494830 1.12045846 1.34900528\
1.29563418 -2.78821342 -3.96907210 -6.41978316 -6.19218611 -0.85464058 -4.95735801 0.32660304 9.82156344 17.62028840\
22.49318400 22.55150896 18.32675680 10.29894110 4.70161519 0.44775494 0.03168962 -0.62526951 -3.33561032 -2.43596664\
0.34689544 1.13629072 -0.19066488 1.58753512 1.03666968 -3.72775990 -6.62088712 -8.17776189 -8.28835756 -8.36981167\
-4.91502848 4.46445352 17.49104464 28.20689624 25.40010168 20.11027048 11.64549456 5.52625230 3.20485195 -0.03534643\
1.15838224 -2.95867376 5.49928224 6.37051656 8.01466120 9.30308216 0.81290936 2.23425600 1.38816752 -6.67409505\
-11.92080594 -14.85514556 -13.71251190 -11.10908484 1.22838056 23.38048488 15.61728208 13.46252208 13.69193080 10.53246688\
6.64712080 5.78128384 3.58321944 2.74123128 6.76540248 3.54351328 2.13831688 3.09933984 4.27194768 6.76377072\
-1.43260160 0.76052568 -2.56864128 -10.70282681 -15.84413438 -15.92984780 -13.20196766 -7.31866954 11.85038504 3.29695016\
1.35260352 2.00509832 2.63006240 4.08496472 5.18293000 6.99543880 6.88468832 10.54510256 6.72356248 3.24824840\
0.50115952 0.29451176 0.50697528 -6.56565832 -5.07523384 -7.72517024 -11.48302984 -15.86794552 -16.46353792 -15.12905112\
-11.19533800 -3.86672728 -3.25657456 -8.00265312 -8.58615376 -7.72483552 -4.38244712 0.76734560 7.04146280 9.30312400\
5.68342008 10.24519344 6.01207328 2.83913688 -0.99185904 -2.23977888 -3.30694992 -9.13191472 -13.60276976 -17.55234024\
-17.86262568 -16.35195064 -14.45831408 -11.60629048 7.34446808 1.31130744 -12.40058104 -14.57592632 -14.40052886 -10.04306022\
-4.70734727 1.40666080 5.97663480 5.83513192 4.06002808 10.30402048 6.36984712 2.31634608 -1.70447792 -6.20466280\
-15.12064128 -17.40464504 -19.70547266 -18.81239786 -15.75083536 -12.38104176 -8.21674840 -4.48215184 -6.69264272 -10.23121888\
-16.82593926 -16.05212102 -14.08052817 -9.76703337 -4.12008940 1.51460800 3.40736592 3.15519624 2.10191608 7.96390928\
3.22260048 -1.74230128 -13.74992104 -16.21412968 -19.29472520 -22.12489577 -21.53186398 -16.89761537 -11.98904280 -9.90842328\
-11.96829016 -14.29488704 -15.34059416 -15.04238793 -14.03180967 -12.48679654 -9.69605181 -5.18875831 -1.07901176 3.02340024\
2.79520488 1.83313592 10.02206072 6.83025448 -8.54142680 -13.46453040 -16.38069472 -19.11491362 -21.32491078 -23.12477972\
-20.94222541 -15.80664574 -11.88539675 -14.68090288 -15.71690312 -15.23314904 -14.44251948 -13.98631704 -9.40869887 -6.86627872\
-4.22827927 0.16592070 2.66128759 3.44640264 2.16371376 -0.05489408 -1.55188744 -4.99071286 -9.64683960 -14.31170672\
-18.76507264 -23.41883961 -23.43568858 -23.96485998 -19.83435660 -15.98027755 -15.41866760 -17.36929024 -17.45037198 -15.58786438\
-15.63448669 -10.96489583 -7.19999456 -4.92804072 -1.79255112 1.16202232 3.38025360 3.36083984 2.01882184 -1.40958960\
-3.28975368 -7.42270888 -11.68683248 -16.01869504 -21.80617120 -26.33546835 -27.68645266 -24.11637935 -21.22541108 -16.36550680\
-17.39835230 -18.71675999 -17.15157580 -15.77293525 -13.21014320 -11.09468770 -7.74307776 -4.57068528 -1.86196368 0.53760216\
4.20709568 3.70208688 2.03279640 -0.91407848 -3.58849128 -7.03886872 -12.61224960 -18.74896424 -25.32788584 -28.72483360\
-28.74880792 -23.96695616 -16.36877032 -20.09202824 -21.06493376 -19.73170216 -19.24871794 -17.09884066 -13.70105192 -10.08737296\
-8.23925832 -4.67206360 -2.26040600 -0.62898072 3.19456768 4.34671576 3.17348032 1.31180952 -1.39348120 -7.83566968\
-14.08447368 -20.95455984 -25.62620504 -29.43372872 -28.13455488 -15.48163680 -18.87243408 -21.69675960 -22.43301808 -20.28189816\
-18.59503488 -16.75382384 -14.29137248 -11.51114632 -8.83347000 -4.89092864 -1.35055336 -0.02895328 1.32490544 4.54495368\
3.92948728 2.61642256 -0.69605024 -7.65801704 -14.51626248 -20.69418952 -25.57495104 -8.01478672 -16.93394504 -20.90636016\
-20.90631832 -20.26181496 -20.44561808 -17.99345936 -18.80549008 -18.58620664 -17.42037688 -13.31980584 -7.35375656 -1.68874608\
0.10008128 1.51623976 2.65483168 5.29242528 5.69593024 3.96818928 -0.30827712 -6.20721504 -13.19139888 7.67814208\
-7.37580624 -21.31187344 -24.03636872 -22.55205288 -20.01596312 -17.53359592 -17.21891728 -16.91289952 -17.26138488 -16.85545320\
-16.84520240 -12.29221544 -3.39150856 -0.29915600 1.58527576 2.27320904 5.34664992 6.86724104 7.10794656 6.35947080\
2.64407880 -4.55499528 -11.44964152 -3.07624416 -19.09506472 -26.81253640 -24.64145880 -21.51308200 -17.55175448 -15.34059416\
-16.08099480 -14.87412000 -14.84785285 -13.58542708 -11.51139318 -7.59131571 

CG2O1 N CP1 C NH1 1 24 24\
12.44112400 14.00886880 12.81517360 8.84246560 4.35345200 3.22419040 3.28527680 1.10164720 -2.00413600 -2.43927200\
-1.94053920 -1.22423840 0.00000000 1.08407440 0.74098640 -0.63262080 -0.72592400 0.88575280 1.45979760 -0.56735040\
-3.97480000 -5.25761440 -1.22507520 6.52704000 23.74043440 25.15169760 23.27433680 18.69118320 14.18710720 12.58881920\
11.91854240 9.67006080 6.95129760 6.14378560 4.78105680 6.01408160 8.84162880 11.71310800 12.50639440 12.00389600\
12.61936240 13.92644400 13.52645360 10.65915840 6.89188480 5.95257680 10.53154640 18.15772320 28.25371520 29.17586880\
26.96295120 22.55092320 18.57110240 16.92846400 16.03643520 14.40300160 13.82184400 12.59384000 11.87461040 13.23064480\
15.80840720 18.25395520 19.26146240 19.02130080 19.67358640 20.23884480 19.03510800 16.10672640 12.96705280 12.68505120\
16.98787680 23.53416320 31.91471520 34.11382560 30.72102000 24.65840400 20.07985280 18.54934560 19.04347600 18.58867520\
9.29768480 3.24803920 3.30536000 9.00522320 16.45525360 22.07018160 24.39606720 25.05630240 23.38228400 21.80282400\
20.57691200 17.95814640 14.62517200 14.43396320 19.32045680 26.40815280 33.95567040 35.46860480 32.44399120 27.55164000\
23.17057360 20.77063120 20.62293600 18.49830080 9.77424240 5.26263520 7.40275120 14.05782160 20.99531200 25.33621200\
26.01443840 23.95800240 23.06304480 24.35171680 23.91867280 20.38570320 17.01549120 17.13180640 22.11202160 29.00139600\
38.70074480 39.67687200 36.26900400 31.48585520 29.30138880 28.59596640 28.54366640 22.12331840 13.89339040 11.04701520\
14.49672320 21.33965520 27.35331840 28.80935040 24.44292800 21.96056080 23.18019680 27.83364160 30.11099280 27.72067360\
23.89105840 23.35383280 27.82987600 34.27867520 39.06015040 38.52627200 35.83428640 33.51467680 32.99125840 34.35984480\
36.55602640 35.26735440 30.57039600 27.08805280 27.82903920 31.31598480 34.28913520 34.70628000 30.99172480 27.32110160\
26.11652800 26.05586000 26.55710320 26.98554480 26.79726480 27.52779120 30.92687280 35.85980880 45.83655680 47.92939360\
46.74908720 43.63368080 42.10108160 42.02618800 38.82584640 29.14197840 22.43251600 21.34969680 26.22363840 32.93477440\
33.51300320 29.72522800 27.68301760 28.17380080 31.39673600 36.25310480 38.83923520 36.80204560 32.93854000 31.85028160\
35.55605040 41.39649600 35.24141360 35.68617280 36.01796400 38.93797760 42.84164960 46.13236560 48.16118720 38.84216400\
31.65614400 27.71732640 29.44992080 34.40252160 36.76229760 35.61420800 33.90504400 33.42262880 34.27909360 34.68954400\
33.70463040 31.11557120 27.83113120 26.43032800 28.46166000 32.41051920 28.92482880 33.21008160 36.02758720 38.98065440\
39.28148400 39.36474560 36.93969920 30.53441360 22.82957760 19.84345680 24.23833040 29.78505920 31.65363360 31.79212400\
31.12352080 31.43230000 32.96197040 33.81592480 31.97705680 26.44497200 19.58279360 16.02681200 17.63890720 22.74087680\
22.87267280 29.77334400 37.27441920 34.92468480 31.01808400 29.48464800 25.23621440 17.54393040 11.19136320 12.65116080\
18.76649520 22.80991280 26.00314160 26.87215840 26.06339120 25.90356240 27.14955760 27.80853760 24.40694560 15.69543920\
7.19564320 4.45554160 8.18306720 16.15358720 12.80931600 23.44629920 50.95902800 26.33911680 22.27310560 20.19407600\
15.50423040 10.29891600 9.58805440 13.16244560 14.90382640 18.59202240 22.33210000 23.96929920 23.82704320 23.60445440\
24.86676720 25.81109600 19.91374800 10.75036960 5.67810640 6.98644320 13.44026320 21.05346960 33.83140560 33.68580240\
21.01874240 14.43814720 11.86624240 9.17342000 6.55298080 6.09315920 8.53243120 8.13871680 9.15626560 12.22271920\
14.50802000 14.82600400 14.11890800 14.52810320 17.02846160 15.12767040 8.71192480 4.01078240 3.31623840 6.25173280\
11.69386160 20.30537040 27.77966800 21.66224160 13.60762320 8.17009680 4.51202560 3.71664720 6.29859360 10.21858320\
9.11526240 6.60486240 7.43664160 10.02235360 11.79971680 11.69511680 11.13948160 12.20514640 10.71982640 6.51825360\
5.53250320 6.82577760 8.58222080 10.69263040 12.71559440 20.56436000 31.58417920 21.31957200 11.49344800 3.99655680\
1.85978800 5.51744080 11.43612720 13.48586880 10.73405200 8.99936560 10.01816960 12.29803120 13.66494400 13.43064000\
13.02646560 10.42359920 4.09320720 3.41121520 6.37097680 8.60063040 9.20438160 9.73867840 14.53605280 33.37911520\
0.00000000 0.00000000 0.00000000 0.00000000 0.00000000 0.00000000 0.00000000 0.00000000 0.00000000 0.00000000\
0.00000000 0.00000000 0.00000000 0.00000000 0.00000000 0.00000000 0.00000000 0.00000000 0.00000000 0.00000000\
0.00000000 0.00000000 0.00000000 0.00000000 0.00000000 0.00000000 0.00000000 0.00000000 0.00000000 0.00000000\
0.00000000 0.00000000 0.00000000 0.00000000 0.00000000 0.00000000 0.00000000 0.00000000 0.00000000 0.00000000\
0.00000000 0.00000000 0.00000000 0.00000000 0.00000000 0.00000000 0.00000000 0.00000000 0.00000000 0.00000000\
0.00000000 0.00000000 0.00000000 0.00000000 0.00000000 0.00000000 0.00000000 0.00000000 0.00000000 0.00000000\
0.00000000 0.00000000 0.00000000 0.00000000 0.00000000 0.00000000 0.00000000 0.00000000 0.00000000 0.00000000\
0.00000000 0.00000000 0.00000000 0.00000000 0.00000000 0.00000000 0.00000000 0.00000000 0.00000000 0.00000000\
0.00000000 0.00000000 0.00000000 0.00000000 0.00000000 0.00000000 0.00000000 0.00000000 0.00000000 0.00000000\
0.00000000 0.00000000 0.00000000 0.00000000 0.00000000 0.00000000 0.00000000 0.00000000 0.00000000 0.00000000\
0.00000000 0.00000000 0.00000000 0.00000000 0.00000000 0.00000000 0.00000000 0.00000000 0.00000000 0.00000000\
0.00000000 0.00000000 0.00000000 0.00000000 0.00000000 0.00000000 0.00000000 0.00000000 0.00000000 0.00000000\
0.00000000 0.00000000 0.00000000 0.00000000 0.00000000 0.00000000 0.00000000 0.00000000 0.00000000 0.00000000\
0.00000000 0.00000000 0.00000000 0.00000000 0.00000000 0.00000000 0.00000000 0.00000000 0.00000000 0.00000000\
0.00000000 0.00000000 0.00000000 0.00000000 0.00000000 0.00000000 0.00000000 0.00000000 0.00000000 0.00000000\
0.00000000 0.00000000 0.00000000 0.00000000 0.00000000 0.00000000 0.00000000 0.00000000 0.00000000 0.00000000\
0.00000000 0.00000000 0.00000000 0.00000000 0.00000000 0.00000000 0.00000000 0.00000000 0.00000000 0.00000000\
0.00000000 0.00000000 0.00000000 0.00000000 0.00000000 0.00000000 0.00000000 0.00000000 0.00000000 0.00000000\
0.00000000 0.00000000 0.00000000 0.00000000 0.00000000 0.00000000 0.00000000 0.00000000 0.00000000 0.00000000\
0.00000000 0.00000000 0.00000000 0.00000000 0.00000000 0.00000000 0.00000000 0.00000000 0.00000000 0.00000000\
0.00000000 0.00000000 0.00000000 0.00000000 0.00000000 0.00000000 0.00000000 0.00000000 0.00000000 0.00000000\
0.00000000 0.00000000 0.00000000 0.00000000 0.00000000 0.00000000 

C N CP1 C NG2S0 1 24 24\
12.44112400 14.00886880 12.81517360 8.84246560 4.35345200 3.22419040 3.28527680 1.10164720 -2.00413600 -2.43927200\
-1.94053920 -1.22423840 0.00000000 1.08407440 0.74098640 -0.63262080 -0.72592400 0.88575280 1.45979760 -0.56735040\
-3.97480000 -5.25761440 -1.22507520 6.52704000 23.74043440 25.15169760 23.27433680 18.69118320 14.18710720 12.58881920\
11.91854240 9.67006080 6.95129760 6.14378560 4.78105680 6.01408160 8.84162880 11.71310800 12.50639440 12.00389600\
12.61936240 13.92644400 13.52645360 10.65915840 6.89188480 5.95257680 10.53154640 18.15772320 28.25371520 29.17586880\
26.96295120 22.55092320 18.57110240 16.92846400 16.03643520 14.40300160 13.82184400 12.59384000 11.87461040 13.23064480\
15.80840720 18.25395520 19.26146240 19.02130080 19.67358640 20.23884480 19.03510800 16.10672640 12.96705280 12.68505120\
16.98787680 23.53416320 31.91471520 34.11382560 30.72102000 24.65840400 20.07985280 18.54934560 19.04347600 18.58867520\
9.29768480 3.24803920 3.30536000 9.00522320 16.45525360 22.07018160 24.39606720 25.05630240 23.38228400 21.80282400\
20.57691200 17.95814640 14.62517200 14.43396320 19.32045680 26.40815280 33.95567040 35.46860480 32.44399120 27.55164000\
23.17057360 20.77063120 20.62293600 18.49830080 9.77424240 5.26263520 7.40275120 14.05782160 20.99531200 25.33621200\
26.01443840 23.95800240 23.06304480 24.35171680 23.91867280 20.38570320 17.01549120 17.13180640 22.11202160 29.00139600\
38.70074480 39.67687200 36.26900400 31.48585520 29.30138880 28.59596640 28.54366640 22.12331840 13.89339040 11.04701520\
14.49672320 21.33965520 27.35331840 28.80935040 24.44292800 21.96056080 23.18019680 27.83364160 30.11099280 27.72067360\
23.89105840 23.35383280 27.82987600 34.27867520 39.06015040 38.52627200 35.83428640 33.51467680 32.99125840 34.35984480\
36.55602640 35.26735440 30.57039600 27.08805280 27.82903920 31.31598480 34.28913520 34.70628000 30.99172480 27.32110160\
26.11652800 26.05586000 26.55710320 26.98554480 26.79726480 27.52779120 30.92687280 35.85980880 45.83655680 47.92939360\
46.74908720 43.63368080 42.10108160 42.02618800 38.82584640 29.14197840 22.43251600 21.34969680 26.22363840 32.93477440\
33.51300320 29.72522800 27.68301760 28.17380080 31.39673600 36.25310480 38.83923520 36.80204560 32.93854000 31.85028160\
35.55605040 41.39649600 35.24141360 35.68617280 36.01796400 38.93797760 42.84164960 46.13236560 48.16118720 38.84216400\
31.65614400 27.71732640 29.44992080 34.40252160 36.76229760 35.61420800 33.90504400 33.42262880 34.27909360 34.68954400\
33.70463040 31.11557120 27.83113120 26.43032800 28.46166000 32.41051920 28.92482880 33.21008160 36.02758720 38.98065440\
39.28148400 39.36474560 36.93969920 30.53441360 22.82957760 19.84345680 24.23833040 29.78505920 31.65363360 31.79212400\
31.12352080 31.43230000 32.96197040 33.81592480 31.97705680 26.44497200 19.58279360 16.02681200 17.63890720 22.74087680\
22.87267280 29.77334400 37.27441920 34.92468480 31.01808400 29.48464800 25.23621440 17.54393040 11.19136320 12.65116080\
18.76649520 22.80991280 26.00314160 26.87215840 26.06339120 25.90356240 27.14955760 27.80853760 24.40694560 15.69543920\
7.19564320 4.45554160 8.18306720 16.15358720 12.80931600 23.44629920 50.95902800 26.33911680 22.27310560 20.19407600\
15.50423040 10.29891600 9.58805440 13.16244560 14.90382640 18.59202240 22.33210000 23.96929920 23.82704320 23.60445440\
24.86676720 25.81109600 19.91374800 10.75036960 5.67810640 6.98644320 13.44026320 21.05346960 33.83140560 33.68580240\
21.01874240 14.43814720 11.86624240 9.17342000 6.55298080 6.09315920 8.53243120 8.13871680 9.15626560 12.22271920\
14.50802000 14.82600400 14.11890800 14.52810320 17.02846160 15.12767040 8.71192480 4.01078240 3.31623840 6.25173280\
11.69386160 20.30537040 27.77966800 21.66224160 13.60762320 8.17009680 4.51202560 3.71664720 6.29859360 10.21858320\
9.11526240 6.60486240 7.43664160 10.02235360 11.79971680 11.69511680 11.13948160 12.20514640 10.71982640 6.51825360\
5.53250320 6.82577760 8.58222080 10.69263040 12.71559440 20.56436000 31.58417920 21.31957200 11.49344800 3.99655680\
1.85978800 5.51744080 11.43612720 13.48586880 10.73405200 8.99936560 10.01816960 12.29803120 13.66494400 13.43064000\
13.02646560 10.42359920 4.09320720 3.41121520 6.37097680 8.60063040 9.20438160 9.73867840 14.53605280 33.37911520\
0.00000000 0.00000000 0.00000000 0.00000000 0.00000000 0.00000000 0.00000000 0.00000000 0.00000000 0.00000000\
0.00000000 0.00000000 0.00000000 0.00000000 0.00000000 0.00000000 0.00000000 0.00000000 0.00000000 0.00000000\
0.00000000 0.00000000 0.00000000 0.00000000 0.00000000 0.00000000 0.00000000 0.00000000 0.00000000 0.00000000\
0.00000000 0.00000000 0.00000000 0.00000000 0.00000000 0.00000000 0.00000000 0.00000000 0.00000000 0.00000000\
0.00000000 0.00000000 0.00000000 0.00000000 0.00000000 0.00000000 0.00000000 0.00000000 0.00000000 0.00000000\
0.00000000 0.00000000 0.00000000 0.00000000 0.00000000 0.00000000 0.00000000 0.00000000 0.00000000 0.00000000\
0.00000000 0.00000000 0.00000000 0.00000000 0.00000000 0.00000000 0.00000000 0.00000000 0.00000000 0.00000000\
0.00000000 0.00000000 0.00000000 0.00000000 0.00000000 0.00000000 0.00000000 0.00000000 0.00000000 0.00000000\
0.00000000 0.00000000 0.00000000 0.00000000 0.00000000 0.00000000 0.00000000 0.00000000 0.00000000 0.00000000\
0.00000000 0.00000000 0.00000000 0.00000000 0.00000000 0.00000000 0.00000000 0.00000000 0.00000000 0.00000000\
0.00000000 0.00000000 0.00000000 0.00000000 0.00000000 0.00000000 0.00000000 0.00000000 0.00000000 0.00000000\
0.00000000 0.00000000 0.00000000 0.00000000 0.00000000 0.00000000 0.00000000 0.00000000 0.00000000 0.00000000\
0.00000000 0.00000000 0.00000000 0.00000000 0.00000000 0.00000000 0.00000000 0.00000000 0.00000000 0.00000000\
0.00000000 0.00000000 0.00000000 0.00000000 0.00000000 0.00000000 0.00000000 0.00000000 0.00000000 0.00000000\
0.00000000 0.00000000 0.00000000 0.00000000 0.00000000 0.00000000 0.00000000 0.00000000 0.00000000 0.00000000\
0.00000000 0.00000000 0.00000000 0.00000000 0.00000000 0.00000000 0.00000000 0.00000000 0.00000000 0.00000000\
0.00000000 0.00000000 0.00000000 0.00000000 0.00000000 0.00000000 0.00000000 0.00000000 0.00000000 0.00000000\
0.00000000 0.00000000 0.00000000 0.00000000 0.00000000 0.00000000 0.00000000 0.00000000 0.00000000 0.00000000\
0.00000000 0.00000000 0.00000000 0.00000000 0.00000000 0.00000000 0.00000000 0.00000000 0.00000000 0.00000000\
0.00000000 0.00000000 0.00000000 0.00000000 0.00000000 0.00000000 0.00000000 0.00000000 0.00000000 0.00000000\
0.00000000 0.00000000 0.00000000 0.00000000 0.00000000 0.00000000 0.00000000 0.00000000 0.00000000 0.00000000\
0.00000000 0.00000000 0.00000000 0.00000000 0.00000000 0.00000000 

C N CP1 C NG2S1 1 24 24\
12.44112400 14.00886880 12.81517360 8.84246560 4.35345200 3.22419040 3.28527680 1.10164720 -2.00413600 -2.43927200\
-1.94053920 -1.22423840 0.00000000 1.08407440 0.74098640 -0.63262080 -0.72592400 0.88575280 1.45979760 -0.56735040\
-3.97480000 -5.25761440 -1.22507520 6.52704000 23.74043440 25.15169760 23.27433680 18.69118320 14.18710720 12.58881920\
11.91854240 9.67006080 6.95129760 6.14378560 4.78105680 6.01408160 8.84162880 11.71310800 12.50639440 12.00389600\
12.61936240 13.92644400 13.52645360 10.65915840 6.89188480 5.95257680 10.53154640 18.15772320 28.25371520 29.17586880\
26.96295120 22.55092320 18.57110240 16.92846400 16.03643520 14.40300160 13.82184400 12.59384000 11.87461040 13.23064480\
15.80840720 18.25395520 19.26146240 19.02130080 19.67358640 20.23884480 19.03510800 16.10672640 12.96705280 12.68505120\
16.98787680 23.53416320 31.91471520 34.11382560 30.72102000 24.65840400 20.07985280 18.54934560 19.04347600 18.58867520\
9.29768480 3.24803920 3.30536000 9.00522320 16.45525360 22.07018160 24.39606720 25.05630240 23.38228400 21.80282400\
20.57691200 17.95814640 14.62517200 14.43396320 19.32045680 26.40815280 33.95567040 35.46860480 32.44399120 27.55164000\
23.17057360 20.77063120 20.62293600 18.49830080 9.77424240 5.26263520 7.40275120 14.05782160 20.99531200 25.33621200\
26.01443840 23.95800240 23.06304480 24.35171680 23.91867280 20.38570320 17.01549120 17.13180640 22.11202160 29.00139600\
38.70074480 39.67687200 36.26900400 31.48585520 29.30138880 28.59596640 28.54366640 22.12331840 13.89339040 11.04701520\
14.49672320 21.33965520 27.35331840 28.80935040 24.44292800 21.96056080 23.18019680 27.83364160 30.11099280 27.72067360\
23.89105840 23.35383280 27.82987600 34.27867520 39.06015040 38.52627200 35.83428640 33.51467680 32.99125840 34.35984480\
36.55602640 35.26735440 30.57039600 27.08805280 27.82903920 31.31598480 34.28913520 34.70628000 30.99172480 27.32110160\
26.11652800 26.05586000 26.55710320 26.98554480 26.79726480 27.52779120 30.92687280 35.85980880 45.83655680 47.92939360\
46.74908720 43.63368080 42.10108160 42.02618800 38.82584640 29.14197840 22.43251600 21.34969680 26.22363840 32.93477440\
33.51300320 29.72522800 27.68301760 28.17380080 31.39673600 36.25310480 38.83923520 36.80204560 32.93854000 31.85028160\
35.55605040 41.39649600 35.24141360 35.68617280 36.01796400 38.93797760 42.84164960 46.13236560 48.16118720 38.84216400\
31.65614400 27.71732640 29.44992080 34.40252160 36.76229760 35.61420800 33.90504400 33.42262880 34.27909360 34.68954400\
33.70463040 31.11557120 27.83113120 26.43032800 28.46166000 32.41051920 28.92482880 33.21008160 36.02758720 38.98065440\
39.28148400 39.36474560 36.93969920 30.53441360 22.82957760 19.84345680 24.23833040 29.78505920 31.65363360 31.79212400\
31.12352080 31.43230000 32.96197040 33.81592480 31.97705680 26.44497200 19.58279360 16.02681200 17.63890720 22.74087680\
22.87267280 29.77334400 37.27441920 34.92468480 31.01808400 29.48464800 25.23621440 17.54393040 11.19136320 12.65116080\
18.76649520 22.80991280 26.00314160 26.87215840 26.06339120 25.90356240 27.14955760 27.80853760 24.40694560 15.69543920\
7.19564320 4.45554160 8.18306720 16.15358720 12.80931600 23.44629920 50.95902800 26.33911680 22.27310560 20.19407600\
15.50423040 10.29891600 9.58805440 13.16244560 14.90382640 18.59202240 22.33210000 23.96929920 23.82704320 23.60445440\
24.86676720 25.81109600 19.91374800 10.75036960 5.67810640 6.98644320 13.44026320 21.05346960 33.83140560 33.68580240\
21.01874240 14.43814720 11.86624240 9.17342000 6.55298080 6.09315920 8.53243120 8.13871680 9.15626560 12.22271920\
14.50802000 14.82600400 14.11890800 14.52810320 17.02846160 15.12767040 8.71192480 4.01078240 3.31623840 6.25173280\
11.69386160 20.30537040 27.77966800 21.66224160 13.60762320 8.17009680 4.51202560 3.71664720 6.29859360 10.21858320\
9.11526240 6.60486240 7.43664160 10.02235360 11.79971680 11.69511680 11.13948160 12.20514640 10.71982640 6.51825360\
5.53250320 6.82577760 8.58222080 10.69263040 12.71559440 20.56436000 31.58417920 21.31957200 11.49344800 3.99655680\
1.85978800 5.51744080 11.43612720 13.48586880 10.73405200 8.99936560 10.01816960 12.29803120 13.66494400 13.43064000\
13.02646560 10.42359920 4.09320720 3.41121520 6.37097680 8.60063040 9.20438160 9.73867840 14.53605280 33.37911520\
0.00000000 0.00000000 0.00000000 0.00000000 0.00000000 0.00000000 0.00000000 0.00000000 0.00000000 0.00000000\
0.00000000 0.00000000 0.00000000 0.00000000 0.00000000 0.00000000 0.00000000 0.00000000 0.00000000 0.00000000\
0.00000000 0.00000000 0.00000000 0.00000000 0.00000000 0.00000000 0.00000000 0.00000000 0.00000000 0.00000000\
0.00000000 0.00000000 0.00000000 0.00000000 0.00000000 0.00000000 0.00000000 0.00000000 0.00000000 0.00000000\
0.00000000 0.00000000 0.00000000 0.00000000 0.00000000 0.00000000 0.00000000 0.00000000 0.00000000 0.00000000\
0.00000000 0.00000000 0.00000000 0.00000000 0.00000000 0.00000000 0.00000000 0.00000000 0.00000000 0.00000000\
0.00000000 0.00000000 0.00000000 0.00000000 0.00000000 0.00000000 0.00000000 0.00000000 0.00000000 0.00000000\
0.00000000 0.00000000 0.00000000 0.00000000 0.00000000 0.00000000 0.00000000 0.00000000 0.00000000 0.00000000\
0.00000000 0.00000000 0.00000000 0.00000000 0.00000000 0.00000000 0.00000000 0.00000000 0.00000000 0.00000000\
0.00000000 0.00000000 0.00000000 0.00000000 0.00000000 0.00000000 0.00000000 0.00000000 0.00000000 0.00000000\
0.00000000 0.00000000 0.00000000 0.00000000 0.00000000 0.00000000 0.00000000 0.00000000 0.00000000 0.00000000\
0.00000000 0.00000000 0.00000000 0.00000000 0.00000000 0.00000000 0.00000000 0.00000000 0.00000000 0.00000000\
0.00000000 0.00000000 0.00000000 0.00000000 0.00000000 0.00000000 0.00000000 0.00000000 0.00000000 0.00000000\
0.00000000 0.00000000 0.00000000 0.00000000 0.00000000 0.00000000 0.00000000 0.00000000 0.00000000 0.00000000\
0.00000000 0.00000000 0.00000000 0.00000000 0.00000000 0.00000000 0.00000000 0.00000000 0.00000000 0.00000000\
0.00000000 0.00000000 0.00000000 0.00000000 0.00000000 0.00000000 0.00000000 0.00000000 0.00000000 0.00000000\
0.00000000 0.00000000 0.00000000 0.00000000 0.00000000 0.00000000 0.00000000 0.00000000 0.00000000 0.00000000\
0.00000000 0.00000000 0.00000000 0.00000000 0.00000000 0.00000000 0.00000000 0.00000000 0.00000000 0.00000000\
0.00000000 0.00000000 0.00000000 0.00000000 0.00000000 0.00000000 0.00000000 0.00000000 0.00000000 0.00000000\
0.00000000 0.00000000 0.00000000 0.00000000 0.00000000 0.00000000 0.00000000 0.00000000 0.00000000 0.00000000\
0.00000000 0.00000000 0.00000000 0.00000000 0.00000000 0.00000000 0.00000000 0.00000000 0.00000000 0.00000000\
0.00000000 0.00000000 0.00000000 0.00000000 0.00000000 0.00000000 

C N CP1 C NG2D1 1 24 24\
12.44112400 14.00886880 12.81517360 8.84246560 4.35345200 3.22419040 3.28527680 1.10164720 -2.00413600 -2.43927200\
-1.94053920 -1.22423840 0.00000000 1.08407440 0.74098640 -0.63262080 -0.72592400 0.88575280 1.45979760 -0.56735040\
-3.97480000 -5.25761440 -1.22507520 6.52704000 23.74043440 25.15169760 23.27433680 18.69118320 14.18710720 12.58881920\
11.91854240 9.67006080 6.95129760 6.14378560 4.78105680 6.01408160 8.84162880 11.71310800 12.50639440 12.00389600\
12.61936240 13.92644400 13.52645360 10.65915840 6.89188480 5.95257680 10.53154640 18.15772320 28.25371520 29.17586880\
26.96295120 22.55092320 18.57110240 16.92846400 16.03643520 14.40300160 13.82184400 12.59384000 11.87461040 13.23064480\
15.80840720 18.25395520 19.26146240 19.02130080 19.67358640 20.23884480 19.03510800 16.10672640 12.96705280 12.68505120\
16.98787680 23.53416320 31.91471520 34.11382560 30.72102000 24.65840400 20.07985280 18.54934560 19.04347600 18.58867520\
9.29768480 3.24803920 3.30536000 9.00522320 16.45525360 22.07018160 24.39606720 25.05630240 23.38228400 21.80282400\
20.57691200 17.95814640 14.62517200 14.43396320 19.32045680 26.40815280 33.95567040 35.46860480 32.44399120 27.55164000\
23.17057360 20.77063120 20.62293600 18.49830080 9.77424240 5.26263520 7.40275120 14.05782160 20.99531200 25.33621200\
26.01443840 23.95800240 23.06304480 24.35171680 23.91867280 20.38570320 17.01549120 17.13180640 22.11202160 29.00139600\
38.70074480 39.67687200 36.26900400 31.48585520 29.30138880 28.59596640 28.54366640 22.12331840 13.89339040 11.04701520\
14.49672320 21.33965520 27.35331840 28.80935040 24.44292800 21.96056080 23.18019680 27.83364160 30.11099280 27.72067360\
23.89105840 23.35383280 27.82987600 34.27867520 39.06015040 38.52627200 35.83428640 33.51467680 32.99125840 34.35984480\
36.55602640 35.26735440 30.57039600 27.08805280 27.82903920 31.31598480 34.28913520 34.70628000 30.99172480 27.32110160\
26.11652800 26.05586000 26.55710320 26.98554480 26.79726480 27.52779120 30.92687280 35.85980880 45.83655680 47.92939360\
46.74908720 43.63368080 42.10108160 42.02618800 38.82584640 29.14197840 22.43251600 21.34969680 26.22363840 32.93477440\
33.51300320 29.72522800 27.68301760 28.17380080 31.39673600 36.25310480 38.83923520 36.80204560 32.93854000 31.85028160\
35.55605040 41.39649600 35.24141360 35.68617280 36.01796400 38.93797760 42.84164960 46.13236560 48.16118720 38.84216400\
31.65614400 27.71732640 29.44992080 34.40252160 36.76229760 35.61420800 33.90504400 33.42262880 34.27909360 34.68954400\
33.70463040 31.11557120 27.83113120 26.43032800 28.46166000 32.41051920 28.92482880 33.21008160 36.02758720 38.98065440\
39.28148400 39.36474560 36.93969920 30.53441360 22.82957760 19.84345680 24.23833040 29.78505920 31.65363360 31.79212400\
31.12352080 31.43230000 32.96197040 33.81592480 31.97705680 26.44497200 19.58279360 16.02681200 17.63890720 22.74087680\
22.87267280 29.77334400 37.27441920 34.92468480 31.01808400 29.48464800 25.23621440 17.54393040 11.19136320 12.65116080\
18.76649520 22.80991280 26.00314160 26.87215840 26.06339120 25.90356240 27.14955760 27.80853760 24.40694560 15.69543920\
7.19564320 4.45554160 8.18306720 16.15358720 12.80931600 23.44629920 50.95902800 26.33911680 22.27310560 20.19407600\
15.50423040 10.29891600 9.58805440 13.16244560 14.90382640 18.59202240 22.33210000 23.96929920 23.82704320 23.60445440\
24.86676720 25.81109600 19.91374800 10.75036960 5.67810640 6.98644320 13.44026320 21.05346960 33.83140560 33.68580240\
21.01874240 14.43814720 11.86624240 9.17342000 6.55298080 6.09315920 8.53243120 8.13871680 9.15626560 12.22271920\
14.50802000 14.82600400 14.11890800 14.52810320 17.02846160 15.12767040 8.71192480 4.01078240 3.31623840 6.25173280\
11.69386160 20.30537040 27.77966800 21.66224160 13.60762320 8.17009680 4.51202560 3.71664720 6.29859360 10.21858320\
9.11526240 6.60486240 7.43664160 10.02235360 11.79971680 11.69511680 11.13948160 12.20514640 10.71982640 6.51825360\
5.53250320 6.82577760 8.58222080 10.69263040 12.71559440 20.56436000 31.58417920 21.31957200 11.49344800 3.99655680\
1.85978800 5.51744080 11.43612720 13.48586880 10.73405200 8.99936560 10.01816960 12.29803120 13.66494400 13.43064000\
13.02646560 10.42359920 4.09320720 3.41121520 6.37097680 8.60063040 9.20438160 9.73867840 14.53605280 33.37911520\
0.00000000 0.00000000 0.00000000 0.00000000 0.00000000 0.00000000 0.00000000 0.00000000 0.00000000 0.00000000\
0.00000000 0.00000000 0.00000000 0.00000000 0.00000000 0.00000000 0.00000000 0.00000000 0.00000000 0.00000000\
0.00000000 0.00000000 0.00000000 0.00000000 0.00000000 0.00000000 0.00000000 0.00000000 0.00000000 0.00000000\
0.00000000 0.00000000 0.00000000 0.00000000 0.00000000 0.00000000 0.00000000 0.00000000 0.00000000 0.00000000\
0.00000000 0.00000000 0.00000000 0.00000000 0.00000000 0.00000000 0.00000000 0.00000000 0.00000000 0.00000000\
0.00000000 0.00000000 0.00000000 0.00000000 0.00000000 0.00000000 0.00000000 0.00000000 0.00000000 0.00000000\
0.00000000 0.00000000 0.00000000 0.00000000 0.00000000 0.00000000 0.00000000 0.00000000 0.00000000 0.00000000\
0.00000000 0.00000000 0.00000000 0.00000000 0.00000000 0.00000000 0.00000000 0.00000000 0.00000000 0.00000000\
0.00000000 0.00000000 0.00000000 0.00000000 0.00000000 0.00000000 0.00000000 0.00000000 0.00000000 0.00000000\
0.00000000 0.00000000 0.00000000 0.00000000 0.00000000 0.00000000 0.00000000 0.00000000 0.00000000 0.00000000\
0.00000000 0.00000000 0.00000000 0.00000000 0.00000000 0.00000000 0.00000000 0.00000000 0.00000000 0.00000000\
0.00000000 0.00000000 0.00000000 0.00000000 0.00000000 0.00000000 0.00000000 0.00000000 0.00000000 0.00000000\
0.00000000 0.00000000 0.00000000 0.00000000 0.00000000 0.00000000 0.00000000 0.00000000 0.00000000 0.00000000\
0.00000000 0.00000000 0.00000000 0.00000000 0.00000000 0.00000000 0.00000000 0.00000000 0.00000000 0.00000000\
0.00000000 0.00000000 0.00000000 0.00000000 0.00000000 0.00000000 0.00000000 0.00000000 0.00000000 0.00000000\
0.00000000 0.00000000 0.00000000 0.00000000 0.00000000 0.00000000 0.00000000 0.00000000 0.00000000 0.00000000\
0.00000000 0.00000000 0.00000000 0.00000000 0.00000000 0.00000000 0.00000000 0.00000000 0.00000000 0.00000000\
0.00000000 0.00000000 0.00000000 0.00000000 0.00000000 0.00000000 0.00000000 0.00000000 0.00000000 0.00000000\
0.00000000 0.00000000 0.00000000 0.00000000 0.00000000 0.00000000 0.00000000 0.00000000 0.00000000 0.00000000\
0.00000000 0.00000000 0.00000000 0.00000000 0.00000000 0.00000000 0.00000000 0.00000000 0.00000000 0.00000000\
0.00000000 0.00000000 0.00000000 0.00000000 0.00000000 0.00000000 0.00000000 0.00000000 0.00000000 0.00000000\
0.00000000 0.00000000 0.00000000 0.00000000 0.00000000 0.00000000 

CG2O1 NH1 CT2 C NH1 1 24 24\
0.98470440 0.76274320 0.74140480 1.66021120 3.59572960 6.23290480 8.75502000 9.61357680 7.56718240 2.91290080\
-2.35684720 -5.99441680 -4.24717840 5.96763920 -2.36103120 2.91290080 7.56550880 9.63031280 8.75543840 6.23039440\
3.59614800 1.66062960 0.74014960 0.76316160 0.08409840 -0.85269920 -1.12842480 0.05941280 2.59742720 5.82580160\
8.56130080 9.15542880 7.04543760 2.88068400 -1.56356080 -2.94344400 3.50535520 15.49753600 -3.05473840 2.48571440\
7.16761040 9.22906720 8.47845760 6.40068320 4.29864160 2.60997920 1.45770560 0.76483520 -2.23258240 -3.37816160\
-3.36644640 -1.58908320 1.52841520 4.88691200 6.86594400 6.77013040 5.44840480 2.57357840 0.27488880 3.08988400\
12.38254800 -8.52113440 -3.91036640 1.70665360 6.34712800 8.30440320 7.66969040 6.00487680 4.16559040 2.35224480\
0.63011040 -0.87445600 -5.05636400 -5.98060960 -5.51953280 -3.42042000 -0.47028160 1.90120960 3.08611840 3.67899120\
3.55681840 2.80453520 3.94760400 -11.09262080 -11.83820960 -9.20103440 -4.45888880 1.16984640 5.53124800 6.98016720\
6.36511920 4.99527760 3.20201520 1.02926400 -1.32005200 -3.44426880 -7.48559440 -8.22365200 -7.78516880 -6.05801360\
-3.75095600 -1.67778400 -0.06317840 1.34431920 2.65516640 4.08483920 -8.27386000 -12.06330880 -11.91812400 -8.94497360\
-4.01789520 1.29160080 4.59445040 5.21033520 4.74298240 3.68945120 1.87526880 -0.64391760 -3.44636080 -5.87559120\
-9.40019280 -10.40560800 -10.34996080 -8.93535040 -6.60109680 -4.10283040 -1.79535440 0.60542480 3.07105600 -3.84216720\
-9.61985280 -12.05912480 -11.16542240 -7.72826640 -3.01164320 0.44768800 2.07526400 2.31584400 2.44471120 2.06689600\
0.41128720 -2.21668320 -5.17937360 -7.69897840 -11.92900240 -13.30972240 -13.38670800 -11.65369520 -8.59519120 -5.20029360\
-1.99367600 1.20541040 -0.18953520 -6.15299040 -10.70601920 -12.00556960 -10.25205520 -6.61992480 -3.89446720 -1.78405760\
-0.09497680 0.00000000 -0.40752160 -0.56944240 -1.83928640 -4.34550240 -7.28434400 -9.92946880 -16.57617120 -17.85814880\
-17.19205600 -14.07790480 -9.42320480 -4.77143360 -0.87780320 2.03886320 -3.12210080 -8.90229680 -12.26790640 -12.12732400\
-9.40521360 -7.23999360 -4.92540480 -1.87526880 0.14602160 -0.30668720 -2.22421440 -3.90492720 -5.69316880 -8.40649280\
-11.48800880 -14.32978160 -22.62707200 -22.40573840 -19.41417840 -13.73690880 -7.15547680 -1.77317920 1.48280960 -0.43388080\
-6.60109680 -11.83360720 -13.18462080 -11.08425280 -9.13367200 -7.36886080 -4.10743280 -0.73094480 1.09871840 0.16401280\
-2.77399200 -6.40444880 -10.36878880 -14.50007040 -18.13429280 -20.96686080 -25.49394880 -22.16850560 -15.96873808 -8.04386552\
-0.82073344 3.21414880 2.37860400 -3.47815920 -9.80687760 -12.70722640 -11.14492080 -9.16756240 -8.46381360 -6.01868400\
-2.71541600 0.32216800 1.84723600 1.07738000 -2.05476240 -7.61739040 -14.53145040 -20.48151680 -24.22828880 -25.96548560\
-22.00041340 -15.37952628 -6.82456424 1.79947564 6.26123048 1.33134880 -2.32253840 -7.09397200 -10.18469280 -9.17383840\
-7.07639920 -7.90776000 -7.14836400 -5.04715920 -2.37400160 0.22719120 2.08028480 2.50872640 -0.71546400 -8.94371840\
-17.72760800 -23.36387440 -25.66925840 -25.38432800 -13.22905488 -3.77430272 5.99337080 -6.07887084 -6.53030352 -6.96887040\
-7.46049040 -7.34333840 -5.56179120 -3.05892240 -5.51032800 -6.95715520 -6.69942080 -5.41786160 -3.41958320 -0.82466640\
2.29910800 3.55807360 -2.88570480 -11.79846160 -18.38031200 -21.38651600 -21.78060696 -19.47562044 0.14240244 -9.83181424\
-14.27607996 -15.14637288 -14.43877480 -12.03171960 -7.48015520 -2.26459000 1.71732280 -1.55854000 -4.71474040 -6.26951480\
-6.73080080 -6.26951480 -4.71474040 -1.55854000 1.71732280 -2.26459000 -7.48015520 -12.03171960 -14.43877480 -15.14637288\
-14.27607996 -9.83181424 -13.23125148 -19.47562044 -21.78060696 -21.38651600 -18.38031200 -11.79846160 -2.88570480 3.55807360\
2.29910800 -0.82466640 -3.41958320 -5.41786160 -6.69942080 -6.95715520 -5.51032800 -3.05892240 -5.56179120 -7.34333840\
-7.46049040 -6.96887040 -6.53030352 -6.07887084 5.99337080 -3.77430272 -22.00039248 -25.38432800 -25.66925840 -23.36387440\
-17.72760800 -8.94371840 -0.71546400 2.50872640 2.08028480 0.22719120 -2.37400160 -5.04715920 -7.14836400 -7.90776000\
-7.07639920 -9.17383840 -10.18469280 -7.09397200 -2.32253840 1.33134880 6.26123048 1.79947564 -6.82456424 -15.37952628\
-25.49436720 -25.96548560 -24.22828880 -20.48151680 -14.53145040 -7.61739040 -2.05476240 1.07738000 1.84723600 0.32216800\
-2.71541600 -6.01868400 -8.46381360 -9.16756240 -11.14492080 -12.70722640 -9.80687760 -3.47815920 2.37860400 3.21414880\
-0.82073344 -8.04386552 -15.96873808 -22.16850560 -22.62498000 -20.96686080 -18.13429280 -14.50007040 -10.36878880 -6.40444880\
-2.77399200 0.16401280 1.09871840 -0.73094480 -4.10743280 -7.36886080 -9.13367200 -11.08425280 -13.18462080 -11.83360720\
-6.60109680 -0.43388080 1.48280960 -1.77317920 -7.15547680 -13.73690880 -19.41417840 -22.40573840 -16.57658960 -14.32978160\
-11.48800880 -8.40649280 -5.69316880 -3.90492720 -2.22421440 -0.30668720 0.14602160 -1.87526880 -4.92540480 -7.23999360\
-9.40521360 -12.12732400 -12.26790640 -8.90229680 -3.12210080 2.03886320 -0.87780320 -4.77143360 -9.42320480 -14.07790480\
-17.19205600 -17.85814880 -11.94322800 -9.92946880 -7.28434400 -4.34550240 -1.83928640 -0.56944240 -0.40752160 0.00000000\
-0.09497680 -1.78405760 -3.89446720 -6.61992480 -10.25205520 -12.00556960 -10.70601920 -6.15299040 -0.18953520 1.20541040\
-1.99367600 -5.20029360 -8.59519120 -11.65369520 -13.38670800 -13.30972240 -9.39893760 -7.69897840 -5.17937360 -2.21668320\
0.41128720 2.06689600 2.44471120 2.31584400 2.07526400 0.44768800 -3.01164320 -7.72826640 -11.16542240 -12.05912480\
-9.61985280 -3.84216720 3.07105600 0.60542480 -1.79535440 -4.10283040 -6.60109680 -8.93535040 -10.34996080 -10.40560800\
-7.48433920 -5.87559120 -3.44636080 -0.64391760 1.87526880 3.68945120 4.74298240 5.21033520 4.59445040 1.29160080\
-4.01789520 -8.94497360 -11.91812400 -12.06330880 -8.27386000 4.08483920 2.65516640 1.34431920 -0.06317840 -1.67778400\
-3.75095600 -6.05801360 -7.78516880 -8.22365200 -5.05803760 -3.44426880 -1.32005200 1.02926400 3.20201520 4.99527760\
6.36511920 6.98016720 5.53124800 1.16984640 -4.45888880 -9.20103440 -11.83820960 -11.09262080 3.94760400 2.80453520\
3.55681840 3.67899120 3.08611840 1.90120960 -0.47028160 -3.42042000 -5.51953280 -5.98060960 -2.23174560 -0.87445600\
0.63011040 2.35224480 4.16559040 6.00487680 7.66969040 8.30440320 6.34712800 1.70665360 -3.91036640 -8.52113440\
12.38254800 3.08988400 0.27488880 2.57357840 5.44840480 6.77013040 6.86594400 4.88691200 1.52841520 -1.58908320\
-3.36644640 -3.37816160 0.08326160 0.76483520 1.45770560 2.60997920 4.29864160 6.40068320 8.47845760 9.22906720\
7.16761040 2.48571440 -3.05473840 15.49753600 3.50535520 -2.94344400 -1.56356080 2.88068400 7.04543760 9.15542880\
8.56130080 5.82580160 2.59742720 0.05941280 -1.12842480 -0.85269920 

C NH1 CT2 C NG2S0 1 24 24\
0.98470440 0.76274320 0.74140480 1.66021120 3.59572960 6.23290480 8.75502000 9.61357680 7.56718240 2.91290080\
-2.35684720 -5.99441680 -4.24717840 5.96763920 -2.36103120 2.91290080 7.56550880 9.63031280 8.75543840 6.23039440\
3.59614800 1.66062960 0.74014960 0.76316160 0.08409840 -0.85269920 -1.12842480 0.05941280 2.59742720 5.82580160\
8.56130080 9.15542880 7.04543760 2.88068400 -1.56356080 -2.94344400 3.50535520 15.49753600 -3.05473840 2.48571440\
7.16761040 9.22906720 8.47845760 6.40068320 4.29864160 2.60997920 1.45770560 0.76483520 -2.23258240 -3.37816160\
-3.36644640 -1.58908320 1.52841520 4.88691200 6.86594400 6.77013040 5.44840480 2.57357840 0.27488880 3.08988400\
12.38254800 -8.52113440 -3.91036640 1.70665360 6.34712800 8.30440320 7.66969040 6.00487680 4.16559040 2.35224480\
0.63011040 -0.87445600 -5.05636400 -5.98060960 -5.51953280 -3.42042000 -0.47028160 1.90120960 3.08611840 3.67899120\
3.55681840 2.80453520 3.94760400 -11.09262080 -11.83820960 -9.20103440 -4.45888880 1.16984640 5.53124800 6.98016720\
6.36511920 4.99527760 3.20201520 1.02926400 -1.32005200 -3.44426880 -7.48559440 -8.22365200 -7.78516880 -6.05801360\
-3.75095600 -1.67778400 -0.06317840 1.34431920 2.65516640 4.08483920 -8.27386000 -12.06330880 -11.91812400 -8.94497360\
-4.01789520 1.29160080 4.59445040 5.21033520 4.74298240 3.68945120 1.87526880 -0.64391760 -3.44636080 -5.87559120\
-9.40019280 -10.40560800 -10.34996080 -8.93535040 -6.60109680 -4.10283040 -1.79535440 0.60542480 3.07105600 -3.84216720\
-9.61985280 -12.05912480 -11.16542240 -7.72826640 -3.01164320 0.44768800 2.07526400 2.31584400 2.44471120 2.06689600\
0.41128720 -2.21668320 -5.17937360 -7.69897840 -11.92900240 -13.30972240 -13.38670800 -11.65369520 -8.59519120 -5.20029360\
-1.99367600 1.20541040 -0.18953520 -6.15299040 -10.70601920 -12.00556960 -10.25205520 -6.61992480 -3.89446720 -1.78405760\
-0.09497680 0.00000000 -0.40752160 -0.56944240 -1.83928640 -4.34550240 -7.28434400 -9.92946880 -16.57617120 -17.85814880\
-17.19205600 -14.07790480 -9.42320480 -4.77143360 -0.87780320 2.03886320 -3.12210080 -8.90229680 -12.26790640 -12.12732400\
-9.40521360 -7.23999360 -4.92540480 -1.87526880 0.14602160 -0.30668720 -2.22421440 -3.90492720 -5.69316880 -8.40649280\
-11.48800880 -14.32978160 -22.62707200 -22.40573840 -19.41417840 -13.73690880 -7.15547680 -1.77317920 1.48280960 -0.43388080\
-6.60109680 -11.83360720 -13.18462080 -11.08425280 -9.13367200 -7.36886080 -4.10743280 -0.73094480 1.09871840 0.16401280\
-2.77399200 -6.40444880 -10.36878880 -14.50007040 -18.13429280 -20.96686080 -25.49394880 -22.16850560 -15.96873808 -8.04386552\
-0.82073344 3.21414880 2.37860400 -3.47815920 -9.80687760 -12.70722640 -11.14492080 -9.16756240 -8.46381360 -6.01868400\
-2.71541600 0.32216800 1.84723600 1.07738000 -2.05476240 -7.61739040 -14.53145040 -20.48151680 -24.22828880 -25.96548560\
-22.00041340 -15.37952628 -6.82456424 1.79947564 6.26123048 1.33134880 -2.32253840 -7.09397200 -10.18469280 -9.17383840\
-7.07639920 -7.90776000 -7.14836400 -5.04715920 -2.37400160 0.22719120 2.08028480 2.50872640 -0.71546400 -8.94371840\
-17.72760800 -23.36387440 -25.66925840 -25.38432800 -13.22905488 -3.77430272 5.99337080 -6.07887084 -6.53030352 -6.96887040\
-7.46049040 -7.34333840 -5.56179120 -3.05892240 -5.51032800 -6.95715520 -6.69942080 -5.41786160 -3.41958320 -0.82466640\
2.29910800 3.55807360 -2.88570480 -11.79846160 -18.38031200 -21.38651600 -21.78060696 -19.47562044 0.14240244 -9.83181424\
-14.27607996 -15.14637288 -14.43877480 -12.03171960 -7.48015520 -2.26459000 1.71732280 -1.55854000 -4.71474040 -6.26951480\
-6.73080080 -6.26951480 -4.71474040 -1.55854000 1.71732280 -2.26459000 -7.48015520 -12.03171960 -14.43877480 -15.14637288\
-14.27607996 -9.83181424 -13.23125148 -19.47562044 -21.78060696 -21.38651600 -18.38031200 -11.79846160 -2.88570480 3.55807360\
2.29910800 -0.82466640 -3.41958320 -5.41786160 -6.69942080 -6.95715520 -5.51032800 -3.05892240 -5.56179120 -7.34333840\
-7.46049040 -6.96887040 -6.53030352 -6.07887084 5.99337080 -3.77430272 -22.00039248 -25.38432800 -25.66925840 -23.36387440\
-17.72760800 -8.94371840 -0.71546400 2.50872640 2.08028480 0.22719120 -2.37400160 -5.04715920 -7.14836400 -7.90776000\
-7.07639920 -9.17383840 -10.18469280 -7.09397200 -2.32253840 1.33134880 6.26123048 1.79947564 -6.82456424 -15.37952628\
-25.49436720 -25.96548560 -24.22828880 -20.48151680 -14.53145040 -7.61739040 -2.05476240 1.07738000 1.84723600 0.32216800\
-2.71541600 -6.01868400 -8.46381360 -9.16756240 -11.14492080 -12.70722640 -9.80687760 -3.47815920 2.37860400 3.21414880\
-0.82073344 -8.04386552 -15.96873808 -22.16850560 -22.62498000 -20.96686080 -18.13429280 -14.50007040 -10.36878880 -6.40444880\
-2.77399200 0.16401280 1.09871840 -0.73094480 -4.10743280 -7.36886080 -9.13367200 -11.08425280 -13.18462080 -11.83360720\
-6.60109680 -0.43388080 1.48280960 -1.77317920 -7.15547680 -13.73690880 -19.41417840 -22.40573840 -16.57658960 -14.32978160\
-11.48800880 -8.40649280 -5.69316880 -3.90492720 -2.22421440 -0.30668720 0.14602160 -1.87526880 -4.92540480 -7.23999360\
-9.40521360 -12.12732400 -12.26790640 -8.90229680 -3.12210080 2.03886320 -0.87780320 -4.77143360 -9.42320480 -14.07790480\
-17.19205600 -17.85814880 -11.94322800 -9.92946880 -7.28434400 -4.34550240 -1.83928640 -0.56944240 -0.40752160 0.00000000\
-0.09497680 -1.78405760 -3.89446720 -6.61992480 -10.25205520 -12.00556960 -10.70601920 -6.15299040 -0.18953520 1.20541040\
-1.99367600 -5.20029360 -8.59519120 -11.65369520 -13.38670800 -13.30972240 -9.39893760 -7.69897840 -5.17937360 -2.21668320\
0.41128720 2.06689600 2.44471120 2.31584400 2.07526400 0.44768800 -3.01164320 -7.72826640 -11.16542240 -12.05912480\
-9.61985280 -3.84216720 3.07105600 0.60542480 -1.79535440 -4.10283040 -6.60109680 -8.93535040 -10.34996080 -10.40560800\
-7.48433920 -5.87559120 -3.44636080 -0.64391760 1.87526880 3.68945120 4.74298240 5.21033520 4.59445040 1.29160080\
-4.01789520 -8.94497360 -11.91812400 -12.06330880 -8.27386000 4.08483920 2.65516640 1.34431920 -0.06317840 -1.67778400\
-3.75095600 -6.05801360 -7.78516880 -8.22365200 -5.05803760 -3.44426880 -1.32005200 1.02926400 3.20201520 4.99527760\
6.36511920 6.98016720 5.53124800 1.16984640 -4.45888880 -9.20103440 -11.83820960 -11.09262080 3.94760400 2.80453520\
3.55681840 3.67899120 3.08611840 1.90120960 -0.47028160 -3.42042000 -5.51953280 -5.98060960 -2.23174560 -0.87445600\
0.63011040 2.35224480 4.16559040 6.00487680 7.66969040 8.30440320 6.34712800 1.70665360 -3.91036640 -8.52113440\
12.38254800 3.08988400 0.27488880 2.57357840 5.44840480 6.77013040 6.86594400 4.88691200 1.52841520 -1.58908320\
-3.36644640 -3.37816160 0.08326160 0.76483520 1.45770560 2.60997920 4.29864160 6.40068320 8.47845760 9.22906720\
7.16761040 2.48571440 -3.05473840 15.49753600 3.50535520 -2.94344400 -1.56356080 2.88068400 7.04543760 9.15542880\
8.56130080 5.82580160 2.59742720 0.05941280 -1.12842480 -0.85269920 

C NH1 CT2 C NG2S1 1 24 24\
0.98470440 0.76274320 0.74140480 1.66021120 3.59572960 6.23290480 8.75502000 9.61357680 7.56718240 2.91290080\
-2.35684720 -5.99441680 -4.24717840 5.96763920 -2.36103120 2.91290080 7.56550880 9.63031280 8.75543840 6.23039440\
3.59614800 1.66062960 0.74014960 0.76316160 0.08409840 -0.85269920 -1.12842480 0.05941280 2.59742720 5.82580160\
8.56130080 9.15542880 7.04543760 2.88068400 -1.56356080 -2.94344400 3.50535520 15.49753600 -3.05473840 2.48571440\
7.16761040 9.22906720 8.47845760 6.40068320 4.29864160 2.60997920 1.45770560 0.76483520 -2.23258240 -3.37816160\
-3.36644640 -1.58908320 1.52841520 4.88691200 6.86594400 6.77013040 5.44840480 2.57357840 0.27488880 3.08988400\
12.38254800 -8.52113440 -3.91036640 1.70665360 6.34712800 8.30440320 7.66969040 6.00487680 4.16559040 2.35224480\
0.63011040 -0.87445600 -5.05636400 -5.98060960 -5.51953280 -3.42042000 -0.47028160 1.90120960 3.08611840 3.67899120\
3.55681840 2.80453520 3.94760400 -11.09262080 -11.83820960 -9.20103440 -4.45888880 1.16984640 5.53124800 6.98016720\
6.36511920 4.99527760 3.20201520 1.02926400 -1.32005200 -3.44426880 -7.48559440 -8.22365200 -7.78516880 -6.05801360\
-3.75095600 -1.67778400 -0.06317840 1.34431920 2.65516640 4.08483920 -8.27386000 -12.06330880 -11.91812400 -8.94497360\
-4.01789520 1.29160080 4.59445040 5.21033520 4.74298240 3.68945120 1.87526880 -0.64391760 -3.44636080 -5.87559120\
-9.40019280 -10.40560800 -10.34996080 -8.93535040 -6.60109680 -4.10283040 -1.79535440 0.60542480 3.07105600 -3.84216720\
-9.61985280 -12.05912480 -11.16542240 -7.72826640 -3.01164320 0.44768800 2.07526400 2.31584400 2.44471120 2.06689600\
0.41128720 -2.21668320 -5.17937360 -7.69897840 -11.92900240 -13.30972240 -13.38670800 -11.65369520 -8.59519120 -5.20029360\
-1.99367600 1.20541040 -0.18953520 -6.15299040 -10.70601920 -12.00556960 -10.25205520 -6.61992480 -3.89446720 -1.78405760\
-0.09497680 0.00000000 -0.40752160 -0.56944240 -1.83928640 -4.34550240 -7.28434400 -9.92946880 -16.57617120 -17.85814880\
-17.19205600 -14.07790480 -9.42320480 -4.77143360 -0.87780320 2.03886320 -3.12210080 -8.90229680 -12.26790640 -12.12732400\
-9.40521360 -7.23999360 -4.92540480 -1.87526880 0.14602160 -0.30668720 -2.22421440 -3.90492720 -5.69316880 -8.40649280\
-11.48800880 -14.32978160 -22.62707200 -22.40573840 -19.41417840 -13.73690880 -7.15547680 -1.77317920 1.48280960 -0.43388080\
-6.60109680 -11.83360720 -13.18462080 -11.08425280 -9.13367200 -7.36886080 -4.10743280 -0.73094480 1.09871840 0.16401280\
-2.77399200 -6.40444880 -10.36878880 -14.50007040 -18.13429280 -20.96686080 -25.49394880 -22.16850560 -15.96873808 -8.04386552\
-0.82073344 3.21414880 2.37860400 -3.47815920 -9.80687760 -12.70722640 -11.14492080 -9.16756240 -8.46381360 -6.01868400\
-2.71541600 0.32216800 1.84723600 1.07738000 -2.05476240 -7.61739040 -14.53145040 -20.48151680 -24.22828880 -25.96548560\
-22.00041340 -15.37952628 -6.82456424 1.79947564 6.26123048 1.33134880 -2.32253840 -7.09397200 -10.18469280 -9.17383840\
-7.07639920 -7.90776000 -7.14836400 -5.04715920 -2.37400160 0.22719120 2.08028480 2.50872640 -0.71546400 -8.94371840\
-17.72760800 -23.36387440 -25.66925840 -25.38432800 -13.22905488 -3.77430272 5.99337080 -6.07887084 -6.53030352 -6.96887040\
-7.46049040 -7.34333840 -5.56179120 -3.05892240 -5.51032800 -6.95715520 -6.69942080 -5.41786160 -3.41958320 -0.82466640\
2.29910800 3.55807360 -2.88570480 -11.79846160 -18.38031200 -21.38651600 -21.78060696 -19.47562044 0.14240244 -9.83181424\
-14.27607996 -15.14637288 -14.43877480 -12.03171960 -7.48015520 -2.26459000 1.71732280 -1.55854000 -4.71474040 -6.26951480\
-6.73080080 -6.26951480 -4.71474040 -1.55854000 1.71732280 -2.26459000 -7.48015520 -12.03171960 -14.43877480 -15.14637288\
-14.27607996 -9.83181424 -13.23125148 -19.47562044 -21.78060696 -21.38651600 -18.38031200 -11.79846160 -2.88570480 3.55807360\
2.29910800 -0.82466640 -3.41958320 -5.41786160 -6.69942080 -6.95715520 -5.51032800 -3.05892240 -5.56179120 -7.34333840\
-7.46049040 -6.96887040 -6.53030352 -6.07887084 5.99337080 -3.77430272 -22.00039248 -25.38432800 -25.66925840 -23.36387440\
-17.72760800 -8.94371840 -0.71546400 2.50872640 2.08028480 0.22719120 -2.37400160 -5.04715920 -7.14836400 -7.90776000\
-7.07639920 -9.17383840 -10.18469280 -7.09397200 -2.32253840 1.33134880 6.26123048 1.79947564 -6.82456424 -15.37952628\
-25.49436720 -25.96548560 -24.22828880 -20.48151680 -14.53145040 -7.61739040 -2.05476240 1.07738000 1.84723600 0.32216800\
-2.71541600 -6.01868400 -8.46381360 -9.16756240 -11.14492080 -12.70722640 -9.80687760 -3.47815920 2.37860400 3.21414880\
-0.82073344 -8.04386552 -15.96873808 -22.16850560 -22.62498000 -20.96686080 -18.13429280 -14.50007040 -10.36878880 -6.40444880\
-2.77399200 0.16401280 1.09871840 -0.73094480 -4.10743280 -7.36886080 -9.13367200 -11.08425280 -13.18462080 -11.83360720\
-6.60109680 -0.43388080 1.48280960 -1.77317920 -7.15547680 -13.73690880 -19.41417840 -22.40573840 -16.57658960 -14.32978160\
-11.48800880 -8.40649280 -5.69316880 -3.90492720 -2.22421440 -0.30668720 0.14602160 -1.87526880 -4.92540480 -7.23999360\
-9.40521360 -12.12732400 -12.26790640 -8.90229680 -3.12210080 2.03886320 -0.87780320 -4.77143360 -9.42320480 -14.07790480\
-17.19205600 -17.85814880 -11.94322800 -9.92946880 -7.28434400 -4.34550240 -1.83928640 -0.56944240 -0.40752160 0.00000000\
-0.09497680 -1.78405760 -3.89446720 -6.61992480 -10.25205520 -12.00556960 -10.70601920 -6.15299040 -0.18953520 1.20541040\
-1.99367600 -5.20029360 -8.59519120 -11.65369520 -13.38670800 -13.30972240 -9.39893760 -7.69897840 -5.17937360 -2.21668320\
0.41128720 2.06689600 2.44471120 2.31584400 2.07526400 0.44768800 -3.01164320 -7.72826640 -11.16542240 -12.05912480\
-9.61985280 -3.84216720 3.07105600 0.60542480 -1.79535440 -4.10283040 -6.60109680 -8.93535040 -10.34996080 -10.40560800\
-7.48433920 -5.87559120 -3.44636080 -0.64391760 1.87526880 3.68945120 4.74298240 5.21033520 4.59445040 1.29160080\
-4.01789520 -8.94497360 -11.91812400 -12.06330880 -8.27386000 4.08483920 2.65516640 1.34431920 -0.06317840 -1.67778400\
-3.75095600 -6.05801360 -7.78516880 -8.22365200 -5.05803760 -3.44426880 -1.32005200 1.02926400 3.20201520 4.99527760\
6.36511920 6.98016720 5.53124800 1.16984640 -4.45888880 -9.20103440 -11.83820960 -11.09262080 3.94760400 2.80453520\
3.55681840 3.67899120 3.08611840 1.90120960 -0.47028160 -3.42042000 -5.51953280 -5.98060960 -2.23174560 -0.87445600\
0.63011040 2.35224480 4.16559040 6.00487680 7.66969040 8.30440320 6.34712800 1.70665360 -3.91036640 -8.52113440\
12.38254800 3.08988400 0.27488880 2.57357840 5.44840480 6.77013040 6.86594400 4.88691200 1.52841520 -1.58908320\
-3.36644640 -3.37816160 0.08326160 0.76483520 1.45770560 2.60997920 4.29864160 6.40068320 8.47845760 9.22906720\
7.16761040 2.48571440 -3.05473840 15.49753600 3.50535520 -2.94344400 -1.56356080 2.88068400 7.04543760 9.15542880\
8.56130080 5.82580160 2.59742720 0.05941280 -1.12842480 -0.85269920 

C NH1 CT2 C NG2D1 1 24 24\
0.98470440 0.76274320 0.74140480 1.66021120 3.59572960 6.23290480 8.75502000 9.61357680 7.56718240 2.91290080\
-2.35684720 -5.99441680 -4.24717840 5.96763920 -2.36103120 2.91290080 7.56550880 9.63031280 8.75543840 6.23039440\
3.59614800 1.66062960 0.74014960 0.76316160 0.08409840 -0.85269920 -1.12842480 0.05941280 2.59742720 5.82580160\
8.56130080 9.15542880 7.04543760 2.88068400 -1.56356080 -2.94344400 3.50535520 15.49753600 -3.05473840 2.48571440\
7.16761040 9.22906720 8.47845760 6.40068320 4.29864160 2.60997920 1.45770560 0.76483520 -2.23258240 -3.37816160\
-3.36644640 -1.58908320 1.52841520 4.88691200 6.86594400 6.77013040 5.44840480 2.57357840 0.27488880 3.08988400\
12.38254800 -8.52113440 -3.91036640 1.70665360 6.34712800 8.30440320 7.66969040 6.00487680 4.16559040 2.35224480\
0.63011040 -0.87445600 -5.05636400 -5.98060960 -5.51953280 -3.42042000 -0.47028160 1.90120960 3.08611840 3.67899120\
3.55681840 2.80453520 3.94760400 -11.09262080 -11.83820960 -9.20103440 -4.45888880 1.16984640 5.53124800 6.98016720\
6.36511920 4.99527760 3.20201520 1.02926400 -1.32005200 -3.44426880 -7.48559440 -8.22365200 -7.78516880 -6.05801360\
-3.75095600 -1.67778400 -0.06317840 1.34431920 2.65516640 4.08483920 -8.27386000 -12.06330880 -11.91812400 -8.94497360\
-4.01789520 1.29160080 4.59445040 5.21033520 4.74298240 3.68945120 1.87526880 -0.64391760 -3.44636080 -5.87559120\
-9.40019280 -10.40560800 -10.34996080 -8.93535040 -6.60109680 -4.10283040 -1.79535440 0.60542480 3.07105600 -3.84216720\
-9.61985280 -12.05912480 -11.16542240 -7.72826640 -3.01164320 0.44768800 2.07526400 2.31584400 2.44471120 2.06689600\
0.41128720 -2.21668320 -5.17937360 -7.69897840 -11.92900240 -13.30972240 -13.38670800 -11.65369520 -8.59519120 -5.20029360\
-1.99367600 1.20541040 -0.18953520 -6.15299040 -10.70601920 -12.00556960 -10.25205520 -6.61992480 -3.89446720 -1.78405760\
-0.09497680 0.00000000 -0.40752160 -0.56944240 -1.83928640 -4.34550240 -7.28434400 -9.92946880 -16.57617120 -17.85814880\
-17.19205600 -14.07790480 -9.42320480 -4.77143360 -0.87780320 2.03886320 -3.12210080 -8.90229680 -12.26790640 -12.12732400\
-9.40521360 -7.23999360 -4.92540480 -1.87526880 0.14602160 -0.30668720 -2.22421440 -3.90492720 -5.69316880 -8.40649280\
-11.48800880 -14.32978160 -22.62707200 -22.40573840 -19.41417840 -13.73690880 -7.15547680 -1.77317920 1.48280960 -0.43388080\
-6.60109680 -11.83360720 -13.18462080 -11.08425280 -9.13367200 -7.36886080 -4.10743280 -0.73094480 1.09871840 0.16401280\
-2.77399200 -6.40444880 -10.36878880 -14.50007040 -18.13429280 -20.96686080 -25.49394880 -22.16850560 -15.96873808 -8.04386552\
-0.82073344 3.21414880 2.37860400 -3.47815920 -9.80687760 -12.70722640 -11.14492080 -9.16756240 -8.46381360 -6.01868400\
-2.71541600 0.32216800 1.84723600 1.07738000 -2.05476240 -7.61739040 -14.53145040 -20.48151680 -24.22828880 -25.96548560\
-22.00041340 -15.37952628 -6.82456424 1.79947564 6.26123048 1.33134880 -2.32253840 -7.09397200 -10.18469280 -9.17383840\
-7.07639920 -7.90776000 -7.14836400 -5.04715920 -2.37400160 0.22719120 2.08028480 2.50872640 -0.71546400 -8.94371840\
-17.72760800 -23.36387440 -25.66925840 -25.38432800 -13.22905488 -3.77430272 5.99337080 -6.07887084 -6.53030352 -6.96887040\
-7.46049040 -7.34333840 -5.56179120 -3.05892240 -5.51032800 -6.95715520 -6.69942080 -5.41786160 -3.41958320 -0.82466640\
2.29910800 3.55807360 -2.88570480 -11.79846160 -18.38031200 -21.38651600 -21.78060696 -19.47562044 0.14240244 -9.83181424\
-14.27607996 -15.14637288 -14.43877480 -12.03171960 -7.48015520 -2.26459000 1.71732280 -1.55854000 -4.71474040 -6.26951480\
-6.73080080 -6.26951480 -4.71474040 -1.55854000 1.71732280 -2.26459000 -7.48015520 -12.03171960 -14.43877480 -15.14637288\
-14.27607996 -9.83181424 -13.23125148 -19.47562044 -21.78060696 -21.38651600 -18.38031200 -11.79846160 -2.88570480 3.55807360\
2.29910800 -0.82466640 -3.41958320 -5.41786160 -6.69942080 -6.95715520 -5.51032800 -3.05892240 -5.56179120 -7.34333840\
-7.46049040 -6.96887040 -6.53030352 -6.07887084 5.99337080 -3.77430272 -22.00039248 -25.38432800 -25.66925840 -23.36387440\
-17.72760800 -8.94371840 -0.71546400 2.50872640 2.08028480 0.22719120 -2.37400160 -5.04715920 -7.14836400 -7.90776000\
-7.07639920 -9.17383840 -10.18469280 -7.09397200 -2.32253840 1.33134880 6.26123048 1.79947564 -6.82456424 -15.37952628\
-25.49436720 -25.96548560 -24.22828880 -20.48151680 -14.53145040 -7.61739040 -2.05476240 1.07738000 1.84723600 0.32216800\
-2.71541600 -6.01868400 -8.46381360 -9.16756240 -11.14492080 -12.70722640 -9.80687760 -3.47815920 2.37860400 3.21414880\
-0.82073344 -8.04386552 -15.96873808 -22.16850560 -22.62498000 -20.96686080 -18.13429280 -14.50007040 -10.36878880 -6.40444880\
-2.77399200 0.16401280 1.09871840 -0.73094480 -4.10743280 -7.36886080 -9.13367200 -11.08425280 -13.18462080 -11.83360720\
-6.60109680 -0.43388080 1.48280960 -1.77317920 -7.15547680 -13.73690880 -19.41417840 -22.40573840 -16.57658960 -14.32978160\
-11.48800880 -8.40649280 -5.69316880 -3.90492720 -2.22421440 -0.30668720 0.14602160 -1.87526880 -4.92540480 -7.23999360\
-9.40521360 -12.12732400 -12.26790640 -8.90229680 -3.12210080 2.03886320 -0.87780320 -4.77143360 -9.42320480 -14.07790480\
-17.19205600 -17.85814880 -11.94322800 -9.92946880 -7.28434400 -4.34550240 -1.83928640 -0.56944240 -0.40752160 0.00000000\
-0.09497680 -1.78405760 -3.89446720 -6.61992480 -10.25205520 -12.00556960 -10.70601920 -6.15299040 -0.18953520 1.20541040\
-1.99367600 -5.20029360 -8.59519120 -11.65369520 -13.38670800 -13.30972240 -9.39893760 -7.69897840 -5.17937360 -2.21668320\
0.41128720 2.06689600 2.44471120 2.31584400 2.07526400 0.44768800 -3.01164320 -7.72826640 -11.16542240 -12.05912480\
-9.61985280 -3.84216720 3.07105600 0.60542480 -1.79535440 -4.10283040 -6.60109680 -8.93535040 -10.34996080 -10.40560800\
-7.48433920 -5.87559120 -3.44636080 -0.64391760 1.87526880 3.68945120 4.74298240 5.21033520 4.59445040 1.29160080\
-4.01789520 -8.94497360 -11.91812400 -12.06330880 -8.27386000 4.08483920 2.65516640 1.34431920 -0.06317840 -1.67778400\
-3.75095600 -6.05801360 -7.78516880 -8.22365200 -5.05803760 -3.44426880 -1.32005200 1.02926400 3.20201520 4.99527760\
6.36511920 6.98016720 5.53124800 1.16984640 -4.45888880 -9.20103440 -11.83820960 -11.09262080 3.94760400 2.80453520\
3.55681840 3.67899120 3.08611840 1.90120960 -0.47028160 -3.42042000 -5.51953280 -5.98060960 -2.23174560 -0.87445600\
0.63011040 2.35224480 4.16559040 6.00487680 7.66969040 8.30440320 6.34712800 1.70665360 -3.91036640 -8.52113440\
12.38254800 3.08988400 0.27488880 2.57357840 5.44840480 6.77013040 6.86594400 4.88691200 1.52841520 -1.58908320\
-3.36644640 -3.37816160 0.08326160 0.76483520 1.45770560 2.60997920 4.29864160 6.40068320 8.47845760 9.22906720\
7.16761040 2.48571440 -3.05473840 15.49753600 3.50535520 -2.94344400 -1.56356080 2.88068400 7.04543760 9.15542880\
8.56130080 5.82580160 2.59742720 0.05941280 -1.12842480 -0.85269920 

C NH1 CTD1 C NH1 1 24 24\
0.54392000 -0.16736000 -3.97480000 -6.35968000 -9.79056000 -9.83240000 -10.25080000 -11.63152000 -11.58968000 -15.02056000\
-20.54344000 -20.16688000 -20.20872000 -9.20480000 4.18400000 -2.88696000 3.26352000 7.48936000 8.74456000 11.38048000\
8.87008000 5.23000000 4.05848000 3.22168000 -3.38904000 -7.57304000 -11.50600000 -13.59800000 -14.85320000 -14.89504000\
-16.06656000 -15.35528000 -17.53096000 -21.50576000 -24.64376000 -26.81944000 -19.07904000 -3.09616000 -11.46416000 -4.56056000\
2.63592000 6.35968000 7.11280000 6.86176000 5.35552000 2.25936000 1.58992000 -0.29288000 -7.36384000 -12.30096000\
-16.86152000 -16.86152000 -17.27992000 -16.90336000 -17.23808000 -17.53096000 -19.99952000 -22.55176000 -24.01616000 -21.29656000\
-7.36384000 7.69856000 -13.17960000 -6.19232000 -0.29288000 3.97480000 5.69024000 5.27184000 2.63592000 1.50624000\
0.08368000 -1.67360000 -8.82824000 -13.30512000 -17.40544000 -18.57696000 -18.78616000 -17.99120000 -20.45976000 -20.25056000\
-20.92000000 -20.92000000 -16.94520000 -8.03328000 -25.56424000 -20.71080000 -14.51848000 -7.65672000 -0.71128000 2.63592000\
3.93296000 4.56056000 1.33888000 -0.04184000 -1.33888000 -4.89528000 -8.24248000 -11.50600000 -14.30928000 -16.73600000\
-18.57696000 -20.29240000 -22.67728000 -21.29656000 -18.86984000 -15.48080000 -29.20432000 -29.49720000 -25.60608000 -20.96184000\
-14.10008000 -7.82408000 -1.38072000 1.29704000 3.17984000 4.35136000 3.17984000 -0.62760000 -2.25936000 -4.68608000\
-7.74040000 -10.08344000 -13.68168000 -17.11256000 -19.24640000 -19.74848000 -20.54344000 -20.33424000 -16.15024000 -24.47640000\
-28.57672000 -28.70224000 -25.06216000 -17.27992000 -12.59384000 -7.02912000 -3.59824000 -0.92048000 2.05016000 3.68192000\
4.22584000 0.54392000 -1.88280000 -4.56056000 -7.19648000 -11.08760000 -13.22144000 -15.77368000 -17.15440000 -18.70248000\
-17.36360000 -16.81968000 -21.17104000 -23.59776000 -27.53072000 -26.27552000 -21.84048000 -15.89920000 -11.75704000 -7.40568000\
-3.30536000 -1.42256000 2.00832000 3.34720000 3.38904000 1.17152000 -1.79912000 -4.93712000 -9.41400000 -10.96208000\
-15.64816000 -15.60632000 -17.44728000 -17.36360000 -15.48080000 -16.06656000 -16.02472000 -20.66896000 -23.05384000 -23.38856000\
-18.82800000 -14.14192000 -9.99976000 -4.97896000 -1.54808000 -0.04184000 2.17568000 3.43088000 2.67776000 0.16736000\
-4.22584000 -6.86176000 -14.01640000 -13.97456000 -14.43480000 -15.22976000 -15.73184000 -14.68584000 -10.92024000 -16.27576000\
-16.48496000 -15.77368000 -20.29240000 -18.95352000 -16.69416000 -13.84904000 -8.40984000 6.81992000 10.04160000 1.84096000\
2.80328000 3.01248000 -1.08784000 -5.18816000 -9.70688000 -12.46832000 -16.81968000 -15.06240000 -15.35528000 -14.30928000\
-11.96624000 -9.91608000 -11.17128000 -17.36360000 -16.10840000 -20.45976000 -18.91168000 -16.35944000 -13.76536000 -1.75728000\
3.22168000 7.94960000 2.09200000 3.13800000 3.38904000 1.50624000 -4.10032000 -9.74872000 -14.10008000 -16.06656000\
-12.38464000 -10.25080000 -6.69440000 -4.47688000 -8.20064000 -12.38464000 -14.97872000 -18.57696000 -19.07904000 -17.27992000\
-14.97872000 -6.19232000 -1.71544000 2.30120000 6.35968000 10.29264000 4.05848000 5.81576000 5.98312000 1.42256000\
-4.72792000 -10.04160000 -14.39296000 -14.56032000 -3.26352000 1.29704000 7.36384000 -11.58968000 -14.47664000 -16.35944000\
-16.48496000 -18.20040000 -13.43064000 -9.12112000 -3.30536000 -2.25936000 -1.00416000 2.84512000 6.02496000 10.25080000\
5.69024000 9.28848000 7.02912000 0.75312000 -4.39320000 -7.74040000 -8.57720000 -7.99144000 11.84072000 -3.84928000\
-11.21312000 -15.14608000 -16.44312000 -15.85736000 -10.87840000 -8.07512000 -5.06264000 -6.56888000 0.50208000 0.29288000\
0.50208000 3.26352000 6.73624000 10.54368000 6.90360000 6.98728000 5.18816000 4.10032000 2.63592000 2.00832000\
1.33888000 3.30536000 1.21336000 -7.32200000 -13.22144000 -15.94104000 -15.85736000 -10.71104000 -2.55224000 0.75312000\
-1.42256000 6.77808000 4.26768000 3.09616000 2.13384000 3.55640000 6.77808000 2.76144000 3.59824000 5.77392000\
6.65256000 10.54368000 13.68168000 13.47248000 15.60632000 23.38856000 -4.89528000 -11.12944000 -13.72352000 -14.85320000\
-11.92440000 -6.69440000 1.38072000 2.21752000 0.79496000 9.28848000 8.03328000 6.35968000 5.48104000 -2.97064000\
1.17152000 -0.04184000 3.22168000 5.52288000 11.63152000 20.12504000 25.39688000 28.20016000 17.48912000 4.47688000\
-4.93712000 -8.36800000 -8.28432000 -8.15880000 -6.61072000 -3.72376000 1.04600000 1.58992000 -0.20920000 1.12968000\
0.33472000 -2.42672000 -3.34720000 -0.62760000 0.04184000 0.46024000 4.68608000 10.29264000 18.32592000 22.55176000\
22.50992000 17.61464000 9.83240000 0.33472000 1.00416000 -0.83680000 -6.19232000 -6.40152000 -3.97480000 -2.80328000\
1.29704000 1.33888000 1.12968000 0.58576000 -0.71128000 -3.43088000 -1.50624000 -0.16736000 -1.71544000 -2.00832000\
9.49768000 15.35528000 17.90752000 18.36776000 17.61464000 13.26328000 7.19648000 5.14632000 5.77392000 1.96648000\
-1.04600000 -0.79496000 -1.04600000 0.79496000 2.30120000 1.25520000 1.75728000 0.96232000 -2.51040000 -1.79912000\
-0.50208000 -2.84512000 0.41840000 7.07096000 14.81136000 17.61464000 14.97872000 15.48080000 15.94104000 12.80304000\
9.83240000 14.01640000 6.06680000 3.13800000 1.17152000 0.08368000 -0.29288000 0.62760000 1.92464000 3.80744000\
1.75728000 -0.08368000 -4.01664000 -6.77808000 -6.31784000 -2.55224000 3.80744000 10.20896000 13.97456000 16.31760000\
13.30512000 13.97456000 14.43480000 13.22144000 11.46416000 11.50600000 8.57720000 3.05432000 1.29704000 -0.66944000\
-1.33888000 -0.50208000 4.35136000 3.22168000 0.33472000 0.87864000 -6.10864000 -9.37216000 -8.74456000 -3.43088000\
3.80744000 8.87008000 12.38464000 12.13360000 12.84488000 14.85320000 14.10008000 12.92856000 11.79888000 10.62736000\
5.69024000 1.88280000 -1.04600000 -3.59824000 -4.05848000 -2.30120000 3.80744000 1.84096000 -0.25104000 -1.79912000\
-7.53120000 -11.00392000 -8.87008000 -3.30536000 2.97064000 6.81992000 11.38048000 11.58968000 11.04576000 14.89504000\
15.48080000 12.71936000 11.29680000 8.20064000 3.89112000 -1.84096000 -2.38488000 -4.10032000 -4.81160000 -2.17568000\
1.29704000 0.08368000 -3.89112000 -5.60656000 -8.20064000 -9.53952000 -8.36800000 -4.93712000 0.50208000 7.74040000\
8.61904000 9.16296000 10.29264000 12.21728000 13.01224000 10.66920000 9.37216000 6.35968000 0.33472000 -3.43088000\
-5.39736000 -5.35552000 -3.22168000 -0.96232000 0.29288000 -3.05432000 -5.64840000 -7.90776000 -10.66920000 -12.59384000\
-10.79472000 -7.61488000 -0.96232000 10.29264000 6.52704000 8.32616000 9.70688000 11.38048000 11.08760000 8.57720000\
6.77808000 5.94128000 -0.54392000 -4.68608000 -4.51872000 -0.87864000 -2.67776000 -3.59824000 -4.60240000 -6.27600000\
-9.62320000 -10.87840000 -14.30928000 -17.32176000 -16.77784000 -11.71520000 1.08784000 2.67776000 4.56056000 8.07512000\
10.20896000 10.41816000 10.04160000 7.82408000 6.61072000 5.77392000 

C NH1 CTD1 C N 1 24 24\
0.54392000 -0.16736000 -3.97480000 -6.35968000 -9.79056000 -9.83240000 -10.25080000 -11.63152000 -11.58968000 -15.02056000\
-20.54344000 -20.16688000 -20.20872000 -9.20480000 4.18400000 -2.88696000 3.26352000 7.48936000 8.74456000 11.38048000\
8.87008000 5.23000000 4.05848000 3.22168000 -3.38904000 -7.57304000 -11.50600000 -13.59800000 -14.85320000 -14.89504000\
-16.06656000 -15.35528000 -17.53096000 -21.50576000 -24.64376000 -26.81944000 -19.07904000 -3.09616000 -11.46416000 -4.56056000\
2.63592000 6.35968000 7.11280000 6.86176000 5.35552000 2.25936000 1.58992000 -0.29288000 -7.36384000 -12.30096000\
-16.86152000 -16.86152000 -17.27992000 -16.90336000 -17.23808000 -17.53096000 -19.99952000 -22.55176000 -24.01616000 -21.29656000\
-7.36384000 7.69856000 -13.17960000 -6.19232000 -0.29288000 3.97480000 5.69024000 5.27184000 2.63592000 1.50624000\
0.08368000 -1.67360000 -8.82824000 -13.30512000 -17.40544000 -18.57696000 -18.78616000 -17.99120000 -20.45976000 -20.25056000\
-20.92000000 -20.92000000 -16.94520000 -8.03328000 -25.56424000 -20.71080000 -14.51848000 -7.65672000 -0.71128000 2.63592000\
3.93296000 4.56056000 1.33888000 -0.04184000 -1.33888000 -4.89528000 -8.24248000 -11.50600000 -14.30928000 -16.73600000\
-18.57696000 -20.29240000 -22.67728000 -21.29656000 -18.86984000 -15.48080000 -29.20432000 -29.49720000 -25.60608000 -20.96184000\
-14.10008000 -7.82408000 -1.38072000 1.29704000 3.17984000 4.35136000 3.17984000 -0.62760000 -2.25936000 -4.68608000\
-7.74040000 -10.08344000 -13.68168000 -17.11256000 -19.24640000 -19.74848000 -20.54344000 -20.33424000 -16.15024000 -24.47640000\
-28.57672000 -28.70224000 -25.06216000 -17.27992000 -12.59384000 -7.02912000 -3.59824000 -0.92048000 2.05016000 3.68192000\
4.22584000 0.54392000 -1.88280000 -4.56056000 -7.19648000 -11.08760000 -13.22144000 -15.77368000 -17.15440000 -18.70248000\
-17.36360000 -16.81968000 -21.17104000 -23.59776000 -27.53072000 -26.27552000 -21.84048000 -15.89920000 -11.75704000 -7.40568000\
-3.30536000 -1.42256000 2.00832000 3.34720000 3.38904000 1.17152000 -1.79912000 -4.93712000 -9.41400000 -10.96208000\
-15.64816000 -15.60632000 -17.44728000 -17.36360000 -15.48080000 -16.06656000 -16.02472000 -20.66896000 -23.05384000 -23.38856000\
-18.82800000 -14.14192000 -9.99976000 -4.97896000 -1.54808000 -0.04184000 2.17568000 3.43088000 2.67776000 0.16736000\
-4.22584000 -6.86176000 -14.01640000 -13.97456000 -14.43480000 -15.22976000 -15.73184000 -14.68584000 -10.92024000 -16.27576000\
-16.48496000 -15.77368000 -20.29240000 -18.95352000 -16.69416000 -13.84904000 -8.40984000 6.81992000 10.04160000 1.84096000\
2.80328000 3.01248000 -1.08784000 -5.18816000 -9.70688000 -12.46832000 -16.81968000 -15.06240000 -15.35528000 -14.30928000\
-11.96624000 -9.91608000 -11.17128000 -17.36360000 -16.10840000 -20.45976000 -18.91168000 -16.35944000 -13.76536000 -1.75728000\
3.22168000 7.94960000 2.09200000 3.13800000 3.38904000 1.50624000 -4.10032000 -9.74872000 -14.10008000 -16.06656000\
-12.38464000 -10.25080000 -6.69440000 -4.47688000 -8.20064000 -12.38464000 -14.97872000 -18.57696000 -19.07904000 -17.27992000\
-14.97872000 -6.19232000 -1.71544000 2.30120000 6.35968000 10.29264000 4.05848000 5.81576000 5.98312000 1.42256000\
-4.72792000 -10.04160000 -14.39296000 -14.56032000 -3.26352000 1.29704000 7.36384000 -11.58968000 -14.47664000 -16.35944000\
-16.48496000 -18.20040000 -13.43064000 -9.12112000 -3.30536000 -2.25936000 -1.00416000 2.84512000 6.02496000 10.25080000\
5.69024000 9.28848000 7.02912000 0.75312000 -4.39320000 -7.74040000 -8.57720000 -7.99144000 11.84072000 -3.84928000\
-11.21312000 -15.14608000 -16.44312000 -15.85736000 -10.87840000 -8.07512000 -5.06264000 -6.56888000 0.50208000 0.29288000\
0.50208000 3.26352000 6.73624000 10.54368000 6.90360000 6.98728000 5.18816000 4.10032000 2.63592000 2.00832000\
1.33888000 3.30536000 1.21336000 -7.32200000 -13.22144000 -15.94104000 -15.85736000 -10.71104000 -2.55224000 0.75312000\
-1.42256000 6.77808000 4.26768000 3.09616000 2.13384000 3.55640000 6.77808000 2.76144000 3.59824000 5.77392000\
6.65256000 10.54368000 13.68168000 13.47248000 15.60632000 23.38856000 -4.89528000 -11.12944000 -13.72352000 -14.85320000\
-11.92440000 -6.69440000 1.38072000 2.21752000 0.79496000 9.28848000 8.03328000 6.35968000 5.48104000 -2.97064000\
1.17152000 -0.04184000 3.22168000 5.52288000 11.63152000 20.12504000 25.39688000 28.20016000 17.48912000 4.47688000\
-4.93712000 -8.36800000 -8.28432000 -8.15880000 -6.61072000 -3.72376000 1.04600000 1.58992000 -0.20920000 1.12968000\
0.33472000 -2.42672000 -3.34720000 -0.62760000 0.04184000 0.46024000 4.68608000 10.29264000 18.32592000 22.55176000\
22.50992000 17.61464000 9.83240000 0.33472000 1.00416000 -0.83680000 -6.19232000 -6.40152000 -3.97480000 -2.80328000\
1.29704000 1.33888000 1.12968000 0.58576000 -0.71128000 -3.43088000 -1.50624000 -0.16736000 -1.71544000 -2.00832000\
9.49768000 15.35528000 17.90752000 18.36776000 17.61464000 13.26328000 7.19648000 5.14632000 5.77392000 1.96648000\
-1.04600000 -0.79496000 -1.04600000 0.79496000 2.30120000 1.25520000 1.75728000 0.96232000 -2.51040000 -1.79912000\
-0.50208000 -2.84512000 0.41840000 7.07096000 14.81136000 17.61464000 14.97872000 15.48080000 15.94104000 12.80304000\
9.83240000 14.01640000 6.06680000 3.13800000 1.17152000 0.08368000 -0.29288000 0.62760000 1.92464000 3.80744000\
1.75728000 -0.08368000 -4.01664000 -6.77808000 -6.31784000 -2.55224000 3.80744000 10.20896000 13.97456000 16.31760000\
13.30512000 13.97456000 14.43480000 13.22144000 11.46416000 11.50600000 8.57720000 3.05432000 1.29704000 -0.66944000\
-1.33888000 -0.50208000 4.35136000 3.22168000 0.33472000 0.87864000 -6.10864000 -9.37216000 -8.74456000 -3.43088000\
3.80744000 8.87008000 12.38464000 12.13360000 12.84488000 14.85320000 14.10008000 12.92856000 11.79888000 10.62736000\
5.69024000 1.88280000 -1.04600000 -3.59824000 -4.05848000 -2.30120000 3.80744000 1.84096000 -0.25104000 -1.79912000\
-7.53120000 -11.00392000 -8.87008000 -3.30536000 2.97064000 6.81992000 11.38048000 11.58968000 11.04576000 14.89504000\
15.48080000 12.71936000 11.29680000 8.20064000 3.89112000 -1.84096000 -2.38488000 -4.10032000 -4.81160000 -2.17568000\
1.29704000 0.08368000 -3.89112000 -5.60656000 -8.20064000 -9.53952000 -8.36800000 -4.93712000 0.50208000 7.74040000\
8.61904000 9.16296000 10.29264000 12.21728000 13.01224000 10.66920000 9.37216000 6.35968000 0.33472000 -3.43088000\
-5.39736000 -5.35552000 -3.22168000 -0.96232000 0.29288000 -3.05432000 -5.64840000 -7.90776000 -10.66920000 -12.59384000\
-10.79472000 -7.61488000 -0.96232000 10.29264000 6.52704000 8.32616000 9.70688000 11.38048000 11.08760000 8.57720000\
6.77808000 5.94128000 -0.54392000 -4.68608000 -4.51872000 -0.87864000 -2.67776000 -3.59824000 -4.60240000 -6.27600000\
-9.62320000 -10.87840000 -14.30928000 -17.32176000 -16.77784000 -11.71520000 1.08784000 2.67776000 4.56056000 8.07512000\
10.20896000 10.41816000 10.04160000 7.82408000 6.61072000 5.77392000 

C N CPD1 C NH1 1 24 24\
12.44112400 6.52704000 -1.22507520 -5.25761440 -3.97480000 -0.56735040 1.45979760 0.88575280 -0.72592400 -0.63262080\
0.74098640 1.08407440 0.00000000 -1.22423840 -1.94053920 -2.43927200 -2.00413600 1.10164720 3.28527680 3.22419040\
4.35345200 8.84246560 12.81517360 14.00886880 0.00000000 0.00000000 0.00000000 0.00000000 0.00000000 0.00000000\
0.00000000 0.00000000 0.00000000 0.00000000 0.00000000 0.00000000 0.00000000 0.00000000 0.00000000 0.00000000\
0.00000000 0.00000000 0.00000000 0.00000000 0.00000000 0.00000000 0.00000000 0.00000000 0.00000000 0.00000000\
0.00000000 0.00000000 0.00000000 0.00000000 0.00000000 0.00000000 0.00000000 0.00000000 0.00000000 0.00000000\
0.00000000 0.00000000 0.00000000 0.00000000 0.00000000 0.00000000 0.00000000 0.00000000 0.00000000 0.00000000\
0.00000000 0.00000000 0.00000000 0.00000000 0.00000000 0.00000000 0.00000000 0.00000000 0.00000000 0.00000000\
0.00000000 0.00000000 0.00000000 0.00000000 0.00000000 0.00000000 0.00000000 0.00000000 0.00000000 0.00000000\
0.00000000 0.00000000 0.00000000 0.00000000 0.00000000 0.00000000 0.00000000 0.00000000 0.00000000 0.00000000\
0.00000000 0.00000000 0.00000000 0.00000000 0.00000000 0.00000000 0.00000000 0.00000000 0.00000000 0.00000000\
0.00000000 0.00000000 0.00000000 0.00000000 0.00000000 0.00000000 0.00000000 0.00000000 0.00000000 0.00000000\
0.00000000 0.00000000 0.00000000 0.00000000 0.00000000 0.00000000 0.00000000 0.00000000 0.00000000 0.00000000\
0.00000000 0.00000000 0.00000000 0.00000000 0.00000000 0.00000000 0.00000000 0.00000000 0.00000000 0.00000000\
0.00000000 0.00000000 0.00000000 0.00000000 0.00000000 0.00000000 0.00000000 0.00000000 0.00000000 0.00000000\
0.00000000 0.00000000 0.00000000 0.00000000 0.00000000 0.00000000 0.00000000 0.00000000 0.00000000 0.00000000\
0.00000000 0.00000000 0.00000000 0.00000000 0.00000000 0.00000000 0.00000000 0.00000000 0.00000000 0.00000000\
0.00000000 0.00000000 0.00000000 0.00000000 0.00000000 0.00000000 0.00000000 0.00000000 0.00000000 0.00000000\
0.00000000 0.00000000 0.00000000 0.00000000 0.00000000 0.00000000 0.00000000 0.00000000 0.00000000 0.00000000\
0.00000000 0.00000000 0.00000000 0.00000000 0.00000000 0.00000000 0.00000000 0.00000000 0.00000000 0.00000000\
0.00000000 0.00000000 0.00000000 0.00000000 0.00000000 0.00000000 0.00000000 0.00000000 0.00000000 0.00000000\
0.00000000 0.00000000 0.00000000 0.00000000 0.00000000 0.00000000 0.00000000 0.00000000 0.00000000 0.00000000\
0.00000000 0.00000000 0.00000000 0.00000000 0.00000000 0.00000000 0.00000000 0.00000000 0.00000000 0.00000000\
0.00000000 0.00000000 0.00000000 0.00000000 0.00000000 0.00000000 0.00000000 0.00000000 0.00000000 0.00000000\
31.58417920 33.37911520 14.53605280 9.73867840 9.20438160 8.60063040 6.37097680 3.41121520 4.09320720 10.42359920\
13.02646560 13.43064000 13.66494400 12.29803120 10.01816960 8.99936560 10.73405200 13.48586880 11.43612720 5.51744080\
1.85978800 3.99655680 11.49344800 21.31957200 27.77966800 20.56436000 12.71559440 10.69263040 8.58222080 6.82577760\
5.53250320 6.51825360 10.71982640 12.20514640 11.13948160 11.69511680 11.79971680 10.02235360 7.43664160 6.60486240\
9.11526240 10.21858320 6.29859360 3.71664720 4.51202560 8.17009680 13.60762320 21.66224160 33.83140560 20.30537040\
11.69386160 6.25173280 3.31623840 4.01078240 8.71192480 15.12767040 17.02846160 14.52810320 14.11890800 14.82600400\
14.50802000 12.22271920 9.15626560 8.13871680 8.53243120 6.09315920 6.55298080 9.17342000 11.86624240 14.43814720\
21.01874240 33.68580240 12.80931600 21.05346960 13.44026320 6.98644320 5.67810640 10.75036960 19.91374800 25.81109600\
24.86676720 23.60445440 23.82704320 23.96929920 22.33210000 18.59202240 14.90382640 13.16244560 9.58805440 10.29891600\
15.50423040 20.19407600 22.27310560 26.33911680 50.95902800 23.44629920 22.87267280 16.15358720 8.18306720 4.45554160\
7.19564320 15.69543920 24.40694560 27.80853760 27.14955760 25.90356240 26.06339120 26.87215840 26.00314160 22.80991280\
18.76649520 12.65116080 11.19136320 17.54393040 25.23621440 29.48464800 31.01808400 34.92468480 37.27441920 29.77334400\
28.92482880 22.74087680 17.63890720 16.02681200 19.58279360 26.44497200 31.97705680 33.81592480 32.96197040 31.43230000\
31.12352080 31.79212400 31.65363360 29.78505920 24.23833040 19.84345680 22.82957760 30.53441360 36.93969920 39.36474560\
39.28148400 38.98065440 36.02758720 33.21008160 35.24141360 32.41051920 28.46166000 26.43032800 27.83113120 31.11557120\
33.70463040 34.68954400 34.27909360 33.42262880 33.90504400 35.61420800 36.76229760 34.40252160 29.44992080 27.71732640\
31.65614400 38.84216400 48.16118720 46.13236560 42.84164960 38.93797760 36.01796400 35.68617280 45.83655680 41.39649600\
35.55605040 31.85028160 32.93854000 36.80204560 38.83923520 36.25310480 31.39673600 28.17380080 27.68301760 29.72522800\
33.51300320 32.93477440 26.22363840 21.34969680 22.43251600 29.14197840 38.82584640 42.02618800 42.10108160 43.63368080\
46.74908720 47.92939360 39.06015040 35.85980880 30.92687280 27.52779120 26.79726480 26.98554480 26.55710320 26.05586000\
26.11652800 27.32110160 30.99172480 34.70628000 34.28913520 31.31598480 27.82903920 27.08805280 30.57039600 35.26735440\
36.55602640 34.35984480 32.99125840 33.51467680 35.83428640 38.52627200 38.70074480 34.27867520 27.82987600 23.35383280\
23.89105840 27.72067360 30.11099280 27.83364160 23.18019680 21.96056080 24.44292800 28.80935040 27.35331840 21.33965520\
14.49672320 11.04701520 13.89339040 22.12331840 28.54366640 28.59596640 29.30138880 31.48585520 36.26900400 39.67687200\
33.95567040 29.00139600 22.11202160 17.13180640 17.01549120 20.38570320 23.91867280 24.35171680 23.06304480 23.95800240\
26.01443840 25.33621200 20.99531200 14.05782160 7.40275120 5.26263520 9.77424240 18.49830080 20.62293600 20.77063120\
23.17057360 27.55164000 32.44399120 35.46860480 31.91471520 26.40815280 19.32045680 14.43396320 14.62517200 17.95814640\
20.57691200 21.80282400 23.38228400 25.05630240 24.39606720 22.07018160 16.45525360 9.00522320 3.30536000 3.24803920\
9.29768480 18.58867520 19.04347600 18.54934560 20.07985280 24.65840400 30.72102000 34.11382560 28.25371520 23.53416320\
16.98787680 12.68505120 12.96705280 16.10672640 19.03510800 20.23884480 19.67358640 19.02130080 19.26146240 18.25395520\
15.80840720 13.23064480 11.87461040 12.59384000 13.82184400 14.40300160 16.03643520 16.92846400 18.57110240 22.55092320\
26.96295120 29.17586880 23.74043440 18.15772320 10.53154640 5.95257680 6.89188480 10.65915840 13.52645360 13.92644400\
12.61936240 12.00389600 12.50639440 11.71310800 8.84162880 6.01408160 4.78105680 6.14378560 6.95129760 9.67006080\
11.91854240 12.58881920 14.18710720 18.69118320 23.27433680 25.15169760 

C N CPD1 C N 1 24 24\
12.44112400 6.52704000 -1.22507520 -5.25761440 -3.97480000 -0.56735040 1.45979760 0.88575280 -0.72592400 -0.63262080\
0.74098640 1.08407440 0.00000000 -1.22423840 -1.94053920 -2.43927200 -2.00413600 1.10164720 3.28527680 3.22419040\
4.35345200 8.84246560 12.81517360 14.00886880 0.00000000 0.00000000 0.00000000 0.00000000 0.00000000 0.00000000\
0.00000000 0.00000000 0.00000000 0.00000000 0.00000000 0.00000000 0.00000000 0.00000000 0.00000000 0.00000000\
0.00000000 0.00000000 0.00000000 0.00000000 0.00000000 0.00000000 0.00000000 0.00000000 0.00000000 0.00000000\
0.00000000 0.00000000 0.00000000 0.00000000 0.00000000 0.00000000 0.00000000 0.00000000 0.00000000 0.00000000\
0.00000000 0.00000000 0.00000000 0.00000000 0.00000000 0.00000000 0.00000000 0.00000000 0.00000000 0.00000000\
0.00000000 0.00000000 0.00000000 0.00000000 0.00000000 0.00000000 0.00000000 0.00000000 0.00000000 0.00000000\
0.00000000 0.00000000 0.00000000 0.00000000 0.00000000 0.00000000 0.00000000 0.00000000 0.00000000 0.00000000\
0.00000000 0.00000000 0.00000000 0.00000000 0.00000000 0.00000000 0.00000000 0.00000000 0.00000000 0.00000000\
0.00000000 0.00000000 0.00000000 0.00000000 0.00000000 0.00000000 0.00000000 0.00000000 0.00000000 0.00000000\
0.00000000 0.00000000 0.00000000 0.00000000 0.00000000 0.00000000 0.00000000 0.00000000 0.00000000 0.00000000\
0.00000000 0.00000000 0.00000000 0.00000000 0.00000000 0.00000000 0.00000000 0.00000000 0.00000000 0.00000000\
0.00000000 0.00000000 0.00000000 0.00000000 0.00000000 0.00000000 0.00000000 0.00000000 0.00000000 0.00000000\
0.00000000 0.00000000 0.00000000 0.00000000 0.00000000 0.00000000 0.00000000 0.00000000 0.00000000 0.00000000\
0.00000000 0.00000000 0.00000000 0.00000000 0.00000000 0.00000000 0.00000000 0.00000000 0.00000000 0.00000000\
0.00000000 0.00000000 0.00000000 0.00000000 0.00000000 0.00000000 0.00000000 0.00000000 0.00000000 0.00000000\
0.00000000 0.00000000 0.00000000 0.00000000 0.00000000 0.00000000 0.00000000 0.00000000 0.00000000 0.00000000\
0.00000000 0.00000000 0.00000000 0.00000000 0.00000000 0.00000000 0.00000000 0.00000000 0.00000000 0.00000000\
0.00000000 0.00000000 0.00000000 0.00000000 0.00000000 0.00000000 0.00000000 0.00000000 0.00000000 0.00000000\
0.00000000 0.00000000 0.00000000 0.00000000 0.00000000 0.00000000 0.00000000 0.00000000 0.00000000 0.00000000\
0.00000000 0.00000000 0.00000000 0.00000000 0.00000000 0.00000000 0.00000000 0.00000000 0.00000000 0.00000000\
0.00000000 0.00000000 0.00000000 0.00000000 0.00000000 0.00000000 0.00000000 0.00000000 0.00000000 0.00000000\
0.00000000 0.00000000 0.00000000 0.00000000 0.00000000 0.00000000 0.00000000 0.00000000 0.00000000 0.00000000\
31.58417920 33.37911520 14.53605280 9.73867840 9.20438160 8.60063040 6.37097680 3.41121520 4.09320720 10.42359920\
13.02646560 13.43064000 13.66494400 12.29803120 10.01816960 8.99936560 10.73405200 13.48586880 11.43612720 5.51744080\
1.85978800 3.99655680 11.49344800 21.31957200 27.77966800 20.56436000 12.71559440 10.69263040 8.58222080 6.82577760\
5.53250320 6.51825360 10.71982640 12.20514640 11.13948160 11.69511680 11.79971680 10.02235360 7.43664160 6.60486240\
9.11526240 10.21858320 6.29859360 3.71664720 4.51202560 8.17009680 13.60762320 21.66224160 33.83140560 20.30537040\
11.69386160 6.25173280 3.31623840 4.01078240 8.71192480 15.12767040 17.02846160 14.52810320 14.11890800 14.82600400\
14.50802000 12.22271920 9.15626560 8.13871680 8.53243120 6.09315920 6.55298080 9.17342000 11.86624240 14.43814720\
21.01874240 33.68580240 12.80931600 21.05346960 13.44026320 6.98644320 5.67810640 10.75036960 19.91374800 25.81109600\
24.86676720 23.60445440 23.82704320 23.96929920 22.33210000 18.59202240 14.90382640 13.16244560 9.58805440 10.29891600\
15.50423040 20.19407600 22.27310560 26.33911680 50.95902800 23.44629920 22.87267280 16.15358720 8.18306720 4.45554160\
7.19564320 15.69543920 24.40694560 27.80853760 27.14955760 25.90356240 26.06339120 26.87215840 26.00314160 22.80991280\
18.76649520 12.65116080 11.19136320 17.54393040 25.23621440 29.48464800 31.01808400 34.92468480 37.27441920 29.77334400\
28.92482880 22.74087680 17.63890720 16.02681200 19.58279360 26.44497200 31.97705680 33.81592480 32.96197040 31.43230000\
31.12352080 31.79212400 31.65363360 29.78505920 24.23833040 19.84345680 22.82957760 30.53441360 36.93969920 39.36474560\
39.28148400 38.98065440 36.02758720 33.21008160 35.24141360 32.41051920 28.46166000 26.43032800 27.83113120 31.11557120\
33.70463040 34.68954400 34.27909360 33.42262880 33.90504400 35.61420800 36.76229760 34.40252160 29.44992080 27.71732640\
31.65614400 38.84216400 48.16118720 46.13236560 42.84164960 38.93797760 36.01796400 35.68617280 45.83655680 41.39649600\
35.55605040 31.85028160 32.93854000 36.80204560 38.83923520 36.25310480 31.39673600 28.17380080 27.68301760 29.72522800\
33.51300320 32.93477440 26.22363840 21.34969680 22.43251600 29.14197840 38.82584640 42.02618800 42.10108160 43.63368080\
46.74908720 47.92939360 39.06015040 35.85980880 30.92687280 27.52779120 26.79726480 26.98554480 26.55710320 26.05586000\
26.11652800 27.32110160 30.99172480 34.70628000 34.28913520 31.31598480 27.82903920 27.08805280 30.57039600 35.26735440\
36.55602640 34.35984480 32.99125840 33.51467680 35.83428640 38.52627200 38.70074480 34.27867520 27.82987600 23.35383280\
23.89105840 27.72067360 30.11099280 27.83364160 23.18019680 21.96056080 24.44292800 28.80935040 27.35331840 21.33965520\
14.49672320 11.04701520 13.89339040 22.12331840 28.54366640 28.59596640 29.30138880 31.48585520 36.26900400 39.67687200\
33.95567040 29.00139600 22.11202160 17.13180640 17.01549120 20.38570320 23.91867280 24.35171680 23.06304480 23.95800240\
26.01443840 25.33621200 20.99531200 14.05782160 7.40275120 5.26263520 9.77424240 18.49830080 20.62293600 20.77063120\
23.17057360 27.55164000 32.44399120 35.46860480 31.91471520 26.40815280 19.32045680 14.43396320 14.62517200 17.95814640\
20.57691200 21.80282400 23.38228400 25.05630240 24.39606720 22.07018160 16.45525360 9.00522320 3.30536000 3.24803920\
9.29768480 18.58867520 19.04347600 18.54934560 20.07985280 24.65840400 30.72102000 34.11382560 28.25371520 23.53416320\
16.98787680 12.68505120 12.96705280 16.10672640 19.03510800 20.23884480 19.67358640 19.02130080 19.26146240 18.25395520\
15.80840720 13.23064480 11.87461040 12.59384000 13.82184400 14.40300160 16.03643520 16.92846400 18.57110240 22.55092320\
26.96295120 29.17586880 23.74043440 18.15772320 10.53154640 5.95257680 6.89188480 10.65915840 13.52645360 13.92644400\
12.61936240 12.00389600 12.50639440 11.71310800 8.84162880 6.01408160 4.78105680 6.14378560 6.95129760 9.67006080\
11.91854240 12.58881920 14.18710720 18.69118320 23.27433680 25.15169760 


; NBFIX  rmin=<charmm_rmin>/2^(1/6), eps=4.184*<charmm_eps>
;name	type1  type2  1  sigma	 epsilon
[ nonbond_params ]
  NC2    OC  1  0.324019863788  0.648181096000
NG2S2 CLGR1  1  0.345668702638  1.673600000000
NG2S1 CLGR1  1  0.345668702638  1.673600000000
NG2P1 CLGR1  1  0.311814551349  4.393200000000
NG2R50 CLGR1  1  0.304687361604  1.924640000000
NG2R51 CLGR1  1  0.334087019303  2.008320000000
NG3P3 CLGR1  1  0.283305792369 15.062400000000
OG2D1 CLGR1  1  0.302905564168  0.836800000000
OG2D2 CLGR1  1  0.249451641079 10.460000000000
SG311 CLGR1  1  0.341214209048  1.589920000000
 HGP3 CLGR1  1  0.251233438516  0.836800000000
NG2S2 BRGR1  1  0.360813980847  1.255200000000
NG2S1 BRGR1  1  0.358141284692  1.255200000000
OG2D1 BRGR1  1  0.313596348785  1.129680000000
NG2R50 BRGR1  1  0.321614437249  0.920480000000
NG2R51 BRGR1  1  0.338541512893  3.012480000000
SG311 BRGR1  1  0.329632525712  2.050160000000
 HGP3 BRGR1  1  0.264596919288  1.004160000000
NG3P3 BRGR1  1  0.296669273141 15.271600000000
NG2P1 BRGR1  1  0.326068930839  4.602400000000
OG2D2 BRGR1  1  0.265487818006  5.230000000000
  NH2 CLGR1  1  0.345668702638  1.673600000000
  NH1 CLGR1  1  0.345668702638  1.673600000000
  NR2 CLGR1  1  0.304687361604  1.924640000000
  NR1 CLGR1  1  0.334087019303  2.008320000000
   NY CLGR1  1  0.334087019303  2.008320000000
  NH3 CLGR1  1  0.283305792369 15.062400000000
  NC2 CLGR1  1  0.311814551349  4.393200000000
    O CLGR1  1  0.302905564168  0.836800000000
   OC CLGR1  1  0.249451641079 10.460000000000
    S CLGR1  1  0.341214209048  1.589920000000
   HS CLGR1  1  0.251233438516  0.836800000000
  NH2 BRGR1  1  0.360813980847  1.255200000000
  NH1 BRGR1  1  0.358141284692  1.255200000000
    O BRGR1  1  0.313596348785  1.129680000000
  NR2 BRGR1  1  0.321614437249  0.920480000000
  NR1 BRGR1  1  0.338541512893  3.012480000000
   NY BRGR1  1  0.338541512893  3.012480000000
  NH3 BRGR1  1  0.296669273141 15.271600000000
  NC2 BRGR1  1  0.326068930839  4.602400000000
   OC BRGR1  1  0.265487818006  5.230000000000
OC2D1 CLGR1  1  0.302905564168  0.836800000000
OC2D2 CLGR1  1  0.249451641079 10.460000000000
OC2D3 CLGR1  1  0.302905564168  0.836800000000
OC2D4 CLGR1  1  0.302905564168  0.836800000000
OC2D2 BRGR1  1  0.265487818006  5.230000000000
OC2D3 BRGR1  1  0.313596348785  1.129680000000
OC2D4 BRGR1  1  0.313596348785  1.129680000000
  OBL CLGR1  1  0.302905564168  0.836800000000
 NH3L CLGR1  1  0.283305792369 15.062400000000
  OCL CLGR1  1  0.249451641079 10.460000000000
  OBL BRGR1  1  0.313596348785  1.129680000000
 NH3L BRGR1  1  0.296669273141 15.271600000000
  OCL BRGR1  1  0.265487818006  5.230000000000
  NN1 CLGR1  1  0.345668702638  1.673600000000
  NN2 CLGR1  1  0.334087019303  2.008320000000
 NN2U CLGR1  1  0.334087019303  2.008320000000
 NN2G CLGR1  1  0.334087019303  2.008320000000
  NN3 CLGR1  1  0.304687361604  1.924640000000
 NN3A CLGR1  1  0.304687361604  1.924640000000
 NN3G CLGR1  1  0.304687361604  1.924640000000
  NN4 CLGR1  1  0.304687361604  1.924640000000
  ON1 CLGR1  1  0.302905564168  0.836800000000
 ON1C CLGR1  1  0.302905564168  0.836800000000
  NN1 BRGR1  1  0.360813980847  1.255200000000
  NN2 BRGR1  1  0.338541512893  3.012480000000
 NN2U BRGR1  1  0.338541512893  3.012480000000
 NN2G BRGR1  1  0.338541512893  3.012480000000
  NN3 BRGR1  1  0.321614437249  0.920480000000
 NN3A BRGR1  1  0.321614437249  0.920480000000
 NN3G BRGR1  1  0.321614437249  0.920480000000
  NN4 BRGR1  1  0.321614437249  0.920480000000
  ON1 BRGR1  1  0.313596348785  1.129680000000
 ON1C BRGR1  1  0.313596348785  1.129680000000
  SOD    OC  1  0.287760285959  0.313883680000
  SOD    OS  1  0.278851298778  0.313883680000
  LIT   ON3  1  0.283083067689  0.069872800000
  SOD   OCL  1  0.287760285959  0.313883680000
  SOD   OBL  1  0.278851298778  0.313883680000
  SOD   O2L  1  0.281523994932  0.313883680000
  SOD OC2D2  1  0.287760285959  0.313883680000
  SOD OC2DP  1  0.281523994932  0.313883680000
  SOD OG2D2  1  0.287760285959  0.313883680000
  SOD OG2P1  1  0.281523994932  0.313883680000
  CLA   LIT  1  0.328518902314  0.078240800000
  CLA   SOD  1  0.332394311738  0.351037600000
  CLA   POT  1  0.363575766873  0.477812800000
  POT    OC  1  0.313952708273  0.427604800000
  POT   OCL  1  0.313952708273  0.427604800000
  POT OC2D2  1  0.313952708273  0.427604800000
  POT OG2D2  1  0.313952708273  0.427604800000
  CAL   CLA  1  0.332037952251  0.561342176000
  CAL   O2L  1  0.290076622626  0.502080000000
  CAL OC2DP  1  0.290076622626  0.502080000000
  CAL OG2P1  1  0.290076622626  0.502080000000
  CAL   OCL  1  0.287938465703  0.502080000000
  CAL    OC  1  0.287938465703  0.502080000000
  CAL OC2D2  1  0.287938465703  0.502080000000
  CAL OG2D2  1  0.287938465703  0.502080000000
 CRL1  HAL2  1  0.298451070577  0.134306400000
 HGA1  HAL2  1  0.238760856462  0.150205600000
 CRL2  HAL2  1  0.299341969295  0.173636000000
 HGA2  HAL2  1  0.238760856462  0.132632800000
 CRL1  HAL1  1  0.298451070577  0.122591200000
 HGA1  HAL1  1  0.238760856462  0.137653600000
 CRL2  HAL1  1  0.299341969295  0.158573600000
 HGA2  HAL1  1  0.238760856462  0.120917600000
 CRL1  CTL1  1  0.357250385974  0.115060000000
 HGA1  CTL1  1  0.297560171859  0.128867200000
 CRL2  CTL1  1  0.358141284692  0.148532000000
 HGA2  CTL1  1  0.297560171859  0.113386400000
; for SILCS, pram

[ atomtypes ]
;type atnum         mass   charge  ?           sigma  epsilon
; special dummy-type particles
LP      0       0.000000        0.00    A       0.0     0.0    ; pram
LQ      0       0.000000        0.00    A       0.0     0.0    ; pram

; NBFIX for LP, rmin=1.2/2^(1/6), eps=4.184*.01
[ nonbond_params ]
LP     LP  1  1.069078461768  0.041840000000                 ; pram
LQ     LQ  1  1.069078461768  0.041840000000                 ; pram
; This force field generated by CGenFF
; Copyright - SilcsBio LLC

[ angletypes ]
;      i        j        k  func       theta0       ktheta          ub0          kub
  CG2R61    CG311    OG301     5   110.099998   633.457581   0.00000000         0.00
   CG311    OG301    CG311     5   109.699997   794.960022   0.00000000         0.00
 
[ dihedraltypes ]
;      i        j        k        l  func         phi0         kphi  mult
   OG301   CG2R61   CG2R61    CG2O5     9   180.000000     5.564720     2
   CG2O5   CG2R61   CG2R61    CG2O5     9     0.000000     1.464400     2
  CG2R61   CG2R61    CG311    OG301     9     0.000000     0.000000     2
  CG2R61    CG311    OG301    CG311     9   180.000000     2.343040     1
  CG2R61    CG311    OG301    CG311     9   180.000000     1.087840     2
  CG2R61    CG311    OG301    CG311     9     0.000000     1.924640     3
   CG321    CG311    OG301    CG311     9     0.000000     1.673600     1
   CG321    CG311    OG301    CG311     9     0.000000     2.050160     3
    HGA1    CG311    OG301    CG311     9     0.000000     1.171520     3
   OG301    CG311    CG321    CG301     9   180.000000     0.669440     1
   OG301    CG311    CG321    CG301     9     0.000000     1.631760     2
   CG311    OG301    CG311   OG3C61     9     0.000000     5.983120     1
   CG311    OG301    CG311   OG3C61     9     0.000000     3.640080     2
   CG311    OG301    CG311   OG3C61     9     0.000000     5.606560     3
   CG311    CG301    CG321   CG2R61     9     0.000000     0.167360     3
   CG301    CG311    CG321    OG311     9   180.000000     0.836800     3
   OG301    CG311    CG321    CG311     9   180.000000     0.669440     1
   OG301    CG311    CG321    CG311     9     0.000000     1.631760     2
 
[ moleculetype ]
; Name            nrexcl
Other               3
;
[ atoms ]
;   nr       type  resnr residue  atom   cgnr     charge       mass  typeB    chargeB      massB
; residue   1 DM2 rtp DM2  q +0.0
     1     CG2R61      1    DM2     C1      1     -0.116     12.011   ; qtot -0.116
     2     CG2R61      1    DM2     C2      2     -0.108     12.011   ; qtot -0.108
     3     CG2R61      1    DM2     C3      3     -0.116     12.011   ; qtot -0.116
     4     CG2R61      1    DM2     C4      4     -0.184     12.011   ; qtot -0.184
     5      OG301      1    DM2     O5      5     -0.132    15.9994   ; qtot -0.132
     6     CG2R61      1    DM2     C6      6      0.279     12.011   ; qtot 0.279
     7      CG2O5      1    DM2     C7      7      0.175     12.011   ; qtot 0.175
     8      OG2D3      1    DM2     O8      8     -0.448    15.9994   ; qtot -0.448
     9     CG2R61      1    DM2     C9      9       0.13     12.011   ; qtot 0.13
    10     CG2R61      1    DM2    C10     10      0.111     12.011   ; qtot 0.111
    11      OG311      1    DM2    O11     11     -0.543    15.9994   ; qtot -0.543
    12     CG2R61      1    DM2    C12     12     -0.011     12.011   ; qtot -0.011
    13      CG311      1    DM2    C13     13      0.109     12.011   ; qtot 0.109
    14      OG301      1    DM2    O14     14     -0.377    15.9994   ; qtot -0.377
    15      CG321      1    DM2    C15     15     -0.149     12.011   ; qtot -0.149
    16      CG301      1    DM2    C16     16       0.42     12.011   ; qtot 0.42
    17      OG311      1    DM2    O17     17     -0.518    15.9994   ; qtot -0.518
    18      CG311      1    DM2    C18     18      0.025     12.011   ; qtot 0.025
    19      OG311      1    DM2    O19     19     -0.626    15.9994   ; qtot -0.626
    20      CG321      1    DM2    C20     20      0.057     12.011   ; qtot 0.057
    21      OG311      1    DM2    O21     21     -0.652    15.9994   ; qtot -0.652
    22      CG321      1    DM2    C22     22     -0.163     12.011   ; qtot -0.163
    23     CG2R61      1    DM2    C23     23     -0.041     12.011   ; qtot -0.041
    24     CG2R61      1    DM2    C24     24      0.098     12.011   ; qtot 0.098
    25      OG311      1    DM2    O25     25     -0.543    15.9994   ; qtot -0.543
    26     CG2R61      1    DM2    C26     26      0.132     12.011   ; qtot 0.132
    27      CG2O5      1    DM2    C27     27      0.188     12.011   ; qtot 0.188
    28      OG2D3      1    DM2    O28     28     -0.448    15.9994   ; qtot -0.448
    29     CG2R61      1    DM2    C29     29       0.13     12.011   ; qtot 0.13
    30      CG331      1    DM2    C30     30     -0.094     12.011   ; qtot -0.094
    31      CG311      1    DM2    C31     31      0.174     12.011   ; qtot 0.174
    32      CG321      1    DM2    C32     32     -0.173     12.011   ; qtot -0.173
    33      CG311      1    DM2    C33     33      0.127     12.011   ; qtot 0.127
    34      NG321      1    DM2    N34     34     -0.989     14.007   ; qtot -0.989
    35      CG311      1    DM2    C35     35      0.077     12.011   ; qtot 0.077
    36      OG311      1    DM2    O36     36     -0.636    15.9994   ; qtot -0.636
    37      CG311      1    DM2    C37     37      0.087     12.011   ; qtot 0.087
    38     OG3C61      1    DM2    O38     38     -0.374    15.9994   ; qtot -0.374
    39      CG331      1    DM2    C39     39     -0.205     12.011   ; qtot -0.205
    40      HGR61      1    DM2    H40     40      0.116      1.008   ; qtot 0.116
    41      HGR61      1    DM2    H41     41      0.116      1.008   ; qtot 0.116
    42      HGR61      1    DM2    H42     42      0.116      1.008   ; qtot 0.116
    43       HGP1      1    DM2    H43     43      0.421      1.008   ; qtot 0.421
    44       HGA1      1    DM2    H44     44       0.09      1.008   ; qtot 0.09
    45       HGA2      1    DM2    H45     45       0.09      1.008   ; qtot 0.09
    46       HGA2      1    DM2    H46     46       0.09      1.008   ; qtot 0.09
    47       HGP1      1    DM2    H47     47       0.32      1.008   ; qtot 0.32
    48       HGA2      1    DM2    H48     48       0.09      1.008   ; qtot 0.09
    49       HGA2      1    DM2    H49     49       0.09      1.008   ; qtot 0.09
    50       HGP1      1    DM2    H50     50      0.417      1.008   ; qtot 0.417
    51       HGA2      1    DM2    H51     51       0.09      1.008   ; qtot 0.09
    52       HGA2      1    DM2    H52     52       0.09      1.008   ; qtot 0.09
    53       HGP1      1    DM2    H53     53      0.421      1.008   ; qtot 0.421
    54       HGA3      1    DM2    H54     54       0.09      1.008   ; qtot 0.09
    55       HGA3      1    DM2    H55     55       0.09      1.008   ; qtot 0.09
    56       HGA3      1    DM2    H56     56       0.09      1.008   ; qtot 0.09
    57       HGA1      1    DM2    H57     57       0.09      1.008   ; qtot 0.09
    58       HGA2      1    DM2    H58     58       0.09      1.008   ; qtot 0.09
    59       HGA2      1    DM2    H59     59       0.09      1.008   ; qtot 0.09
    60       HGA1      1    DM2    H60     60       0.09      1.008   ; qtot 0.09
    61     HGPAM2      1    DM2    H61     61      0.389      1.008   ; qtot 0.389
    62     HGPAM2      1    DM2    H62     62      0.389      1.008   ; qtot 0.389
    63       HGA1      1    DM2    H63     63       0.09      1.008   ; qtot 0.09
    64       HGP1      1    DM2    H64     64      0.422      1.008   ; qtot 0.422
    65       HGA1      1    DM2    H65     65       0.09      1.008   ; qtot 0.09
    66       HGA3      1    DM2    H66     66       0.09      1.008   ; qtot 0.09
    67       HGA3      1    DM2    H67     67       0.09      1.008   ; qtot 0.09
    68       HGA3      1    DM2    H68     68       0.09      1.008   ; qtot 0.09
    69       HGA1      1    DM2    H69     69       0.09      1.008   ; qtot 0.09
    70       HGP1      1    DM2    H70     70        0.4      1.008   ; qtot 0.4

[ bonds ]
;  ai    aj funct            c0            c1            c2            c3
    1     2     1
    1    29     1
    1    40     1
    2     3     1
    2    41     1
    3     4     1
    3    42     1
    4     5     1
    4     6     1
    5    30     1
    6     7     1
    6    29     1
    7     8     1
    7     9     1
    9    10     1
    9    26     1
   10    11     1
   10    12     1
   11    43     1
   12    13     1
   12    23     1
   13    14     1
   13    15     1
   13    44     1
   14    31     1
   15    16     1
   15    45     1
   15    46     1
   16    17     1
   16    18     1
   16    22     1
   17    47     1
   18    19     1
   18    20     1
   20    21     1
   20    48     1
   20    49     1
   21    50     1
   22    23     1
   22    51     1
   22    52     1
   23    24     1
   24    25     1
   24    26     1
   25    53     1
   26    27     1
   27    28     1
   27    29     1
   30    54     1
   30    55     1
   30    56     1
   31    32     1
   31    38     1
   31    57     1
   32    33     1
   32    58     1
   32    59     1
   33    34     1
   33    35     1
   33    60     1
   34    61     1
   34    62     1
   35    36     1
   35    37     1
   35    63     1
   36    64     1
   37    38     1
   37    39     1
   37    65     1
   39    66     1
   39    67     1
   39    68     1
   18    69     1
   19    70     1

[ pairs ]
;  ai    aj funct            c0            c1            c2            c3
    1     4     1
    1     7     1
    1    26     1
    1    28     1
    1    42     1
    2     5     1
    2     6     1
    2    27     1
    3     7     1
    3    29     1
    3    30     1
    3    40     1
    4     8     1
    4     9     1
    4    27     1
    4    41     1
    4    54     1
    4    55     1
    4    56     1
    5     7     1
    5    29     1
    5    42     1
    6    10     1
    6    26     1
    6    28     1
    6    30     1
    6    40     1
    6    42     1
    7    11     1
    7    12     1
    7    24     1
    7    27     1
    8    10     1
    8    26     1
    8    29     1
    9    13     1
    9    23     1
    9    25     1
    9    28     1
    9    29     1
    9    43     1
   10    14     1
   10    15     1
   10    22     1
   10    24     1
   10    27     1
   10    44     1
   11    13     1
   11    23     1
   11    26     1
   12    16     1
   12    25     1
   12    26     1
   12    31     1
   12    43     1
   12    45     1
   12    46     1
   12    51     1
   12    52     1
   13    17     1
   13    18     1
   13    22     1
   13    24     1
   13    32     1
   13    38     1
   13    57     1
   14    16     1
   14    23     1
   14    33     1
   14    37     1
   14    45     1
   14    46     1
   14    58     1
   14    59     1
   15    19     1
   15    20     1
   15    23     1
   15    31     1
   15    47     1
   15    51     1
   15    52     1
   15    69     1
   16    21     1
   16    24     1
   16    44     1
   16    48     1
   16    49     1
   16    70     1
   17    19     1
   17    20     1
   17    23     1
   17    45     1
   17    46     1
   17    51     1
   17    52     1
   17    69     1
   18    23     1
   18    45     1
   18    46     1
   18    47     1
   18    50     1
   18    51     1
   18    52     1
   19    21     1
   19    22     1
   19    48     1
   19    49     1
   20    22     1
   20    70     1
   21    69     1
   22    25     1
   22    26     1
   22    45     1
   22    46     1
   22    47     1
   22    69     1
   23    27     1
   23    44     1
   23    53     1
   24    28     1
   24    29     1
   24    51     1
   24    52     1
   25    27     1
   26    53     1
   27    40     1
   29    41     1
   31    34     1
   31    35     1
   31    39     1
   31    44     1
   31    60     1
   31    65     1
   32    36     1
   32    37     1
   32    61     1
   32    62     1
   32    63     1
   33    38     1
   33    39     1
   33    57     1
   33    64     1
   33    65     1
   34    36     1
   34    37     1
   34    58     1
   34    59     1
   34    63     1
   35    58     1
   35    59     1
   35    61     1
   35    62     1
   35    66     1
   35    67     1
   35    68     1
   36    38     1
   36    39     1
   36    60     1
   36    65     1
   37    57     1
   37    60     1
   37    64     1
   38    58     1
   38    59     1
   38    63     1
   38    66     1
   38    67     1
   38    68     1
   39    63     1
   40    41     1
   41    42     1
   44    45     1
   44    46     1
   48    50     1
   48    69     1
   49    50     1
   49    69     1
   57    58     1
   57    59     1
   58    60     1
   59    60     1
   60    61     1
   60    62     1
   60    63     1
   63    64     1
   63    65     1
   65    66     1
   65    67     1
   65    68     1
   69    70     1

[ angles ]
;  ai    aj    ak funct            c0            c1            c2            c3
    2     1    29     5
    2     1    40     5
   29     1    40     5
    1     2     3     5
    1     2    41     5
    3     2    41     5
    2     3     4     5
    2     3    42     5
    4     3    42     5
    3     4     5     5
    3     4     6     5
    5     4     6     5
    4     5    30     5
    4     6     7     5
    4     6    29     5
    7     6    29     5
    6     7     8     5
    6     7     9     5
    8     7     9     5
    7     9    10     5
    7     9    26     5
   10     9    26     5
    9    10    11     5
    9    10    12     5
   11    10    12     5
   10    11    43     5
   10    12    13     5
   10    12    23     5
   13    12    23     5
   12    13    14     5
   12    13    15     5
   12    13    44     5
   14    13    15     5
   14    13    44     5
   15    13    44     5
   13    14    31     5
   13    15    16     5
   13    15    45     5
   13    15    46     5
   16    15    45     5
   16    15    46     5
   45    15    46     5
   15    16    17     5
   15    16    18     5
   15    16    22     5
   17    16    18     5
   17    16    22     5
   18    16    22     5
   16    17    47     5
   16    18    19     5
   16    18    20     5
   16    18    69     5
   19    18    20     5
   19    18    69     5
   20    18    69     5
   18    19    70     5
   18    20    21     5
   18    20    48     5
   18    20    49     5
   21    20    48     5
   21    20    49     5
   48    20    49     5
   20    21    50     5
   16    22    23     5
   16    22    51     5
   16    22    52     5
   23    22    51     5
   23    22    52     5
   51    22    52     5
   12    23    22     5
   12    23    24     5
   22    23    24     5
   23    24    25     5
   23    24    26     5
   25    24    26     5
   24    25    53     5
    9    26    24     5
    9    26    27     5
   24    26    27     5
   26    27    28     5
   26    27    29     5
   28    27    29     5
    1    29     6     5
    1    29    27     5
    6    29    27     5
    5    30    54     5
    5    30    55     5
    5    30    56     5
   54    30    55     5
   54    30    56     5
   55    30    56     5
   14    31    32     5
   14    31    38     5
   14    31    57     5
   32    31    38     5
   32    31    57     5
   38    31    57     5
   31    32    33     5
   31    32    58     5
   31    32    59     5
   33    32    58     5
   33    32    59     5
   58    32    59     5
   32    33    34     5
   32    33    35     5
   32    33    60     5
   34    33    35     5
   34    33    60     5
   35    33    60     5
   33    34    61     5
   33    34    62     5
   61    34    62     5
   33    35    36     5
   33    35    37     5
   33    35    63     5
   36    35    37     5
   36    35    63     5
   37    35    63     5
   35    36    64     5
   35    37    38     5
   35    37    39     5
   35    37    65     5
   38    37    39     5
   38    37    65     5
   39    37    65     5
   31    38    37     5
   37    39    66     5
   37    39    67     5
   37    39    68     5
   66    39    67     5
   66    39    68     5
   67    39    68     5

[ dihedrals ]
;  ai    aj    ak    al funct            c0            c1            c2            c3            c4            c5
   29     1     2     3     9
   29     1     2    41     9
   40     1     2     3     9
   40     1     2    41     9
    2     1    29     6     9
    2     1    29    27     9
   40     1    29     6     9
   40     1    29    27     9
    1     2     3     4     9
    1     2     3    42     9
   41     2     3     4     9
   41     2     3    42     9
    2     3     4     5     9
    2     3     4     6     9
   42     3     4     5     9
   42     3     4     6     9
    3     4     5    30     9
    6     4     5    30     9
    3     4     6     7     9
    3     4     6    29     9
    5     4     6     7     9
    5     4     6    29     9
    4     5    30    54     9
    4     5    30    55     9
    4     5    30    56     9
    4     6     7     8     9
    4     6     7     9     9
   29     6     7     8     9
   29     6     7     9     9
    4     6    29     1     9
    4     6    29    27     9
    7     6    29     1     9
    7     6    29    27     9
    6     7     9    10     9
    6     7     9    26     9
    8     7     9    10     9
    8     7     9    26     9
    7     9    10    11     9
    7     9    10    12     9
   26     9    10    11     9
   26     9    10    12     9
    7     9    26    24     9
    7     9    26    27     9
   10     9    26    24     9
   10     9    26    27     9
    9    10    11    43     9
   12    10    11    43     9
    9    10    12    13     9
    9    10    12    23     9
   11    10    12    13     9
   11    10    12    23     9
   10    12    13    14     9
   10    12    13    15     9
   10    12    13    44     9
   23    12    13    14     9
   23    12    13    15     9
   23    12    13    44     9
   10    12    23    22     9
   10    12    23    24     9
   13    12    23    22     9
   13    12    23    24     9
   12    13    14    31     9
   15    13    14    31     9
   44    13    14    31     9
   12    13    15    16     9
   12    13    15    45     9
   12    13    15    46     9
   14    13    15    16     9
   14    13    15    45     9
   14    13    15    46     9
   44    13    15    16     9
   44    13    15    45     9
   44    13    15    46     9
   13    14    31    32     9
   13    14    31    38     9
   13    14    31    57     9
   13    15    16    17     9
   13    15    16    18     9
   13    15    16    22     9
   45    15    16    17     9
   45    15    16    18     9
   45    15    16    22     9
   46    15    16    17     9
   46    15    16    18     9
   46    15    16    22     9
   15    16    17    47     9
   18    16    17    47     9
   22    16    17    47     9
   15    16    18    19     9
   15    16    18    20     9
   15    16    18    69     9
   17    16    18    19     9
   17    16    18    20     9
   17    16    18    69     9
   22    16    18    19     9
   22    16    18    20     9
   22    16    18    69     9
   15    16    22    23     9
   15    16    22    51     9
   15    16    22    52     9
   17    16    22    23     9
   17    16    22    51     9
   17    16    22    52     9
   18    16    22    23     9
   18    16    22    51     9
   18    16    22    52     9
   16    18    19    70     9
   20    18    19    70     9
   69    18    19    70     9
   16    18    20    21     9
   16    18    20    48     9
   16    18    20    49     9
   19    18    20    21     9
   19    18    20    48     9
   19    18    20    49     9
   69    18    20    21     9
   69    18    20    48     9
   69    18    20    49     9
   18    20    21    50     9
   48    20    21    50     9
   49    20    21    50     9
   16    22    23    12     9
   16    22    23    24     9
   51    22    23    12     9
   51    22    23    24     9
   52    22    23    12     9
   52    22    23    24     9
   12    23    24    25     9
   12    23    24    26     9
   22    23    24    25     9
   22    23    24    26     9
   23    24    25    53     9
   26    24    25    53     9
   23    24    26     9     9
   23    24    26    27     9
   25    24    26     9     9
   25    24    26    27     9
    9    26    27    28     9
    9    26    27    29     9
   24    26    27    28     9
   24    26    27    29     9
   26    27    29     1     9
   26    27    29     6     9
   28    27    29     1     9
   28    27    29     6     9
   14    31    32    33     9
   14    31    32    58     9
   14    31    32    59     9
   38    31    32    33     9
   38    31    32    58     9
   38    31    32    59     9
   57    31    32    33     9
   57    31    32    58     9
   57    31    32    59     9
   14    31    38    37     9
   32    31    38    37     9
   57    31    38    37     9
   31    32    33    34     9
   31    32    33    35     9
   31    32    33    60     9
   58    32    33    34     9
   58    32    33    35     9
   58    32    33    60     9
   59    32    33    34     9
   59    32    33    35     9
   59    32    33    60     9
   32    33    34    61     9
   32    33    34    62     9
   35    33    34    61     9
   35    33    34    62     9
   60    33    34    61     9
   60    33    34    62     9
   32    33    35    36     9
   32    33    35    37     9
   32    33    35    63     9
   34    33    35    36     9
   34    33    35    37     9
   34    33    35    63     9
   60    33    35    36     9
   60    33    35    37     9
   60    33    35    63     9
   33    35    36    64     9
   37    35    36    64     9
   63    35    36    64     9
   33    35    37    38     9
   33    35    37    39     9
   33    35    37    65     9
   36    35    37    38     9
   36    35    37    39     9
   36    35    37    65     9
   63    35    37    38     9
   63    35    37    39     9
   63    35    37    65     9
   35    37    38    31     9
   39    37    38    31     9
   65    37    38    31     9
   35    37    39    66     9
   35    37    39    67     9
   35    37    39    68     9
   38    37    39    66     9
   38    37    39    67     9
   38    37    39    68     9
   65    37    39    66     9
   65    37    39    67     9
   65    37    39    68     9

[ dihedrals ]
;  ai    aj    ak    al funct            c0            c1            c2            c3            c4            c5
    7     6     9     8     2
   27    26    29    28     2





;;
;; Generated by CHARMM-GUI FF-Converter
;;
;; Correspondance:
;; jul316@lehigh.edu or wonpil@lehigh.edu
;;
;; GROMACS topology file for CHL1
;;


[ moleculetype ]
; name	nrexcl
CHL1	     3

[ atoms ]
; nr	type	resnr	residu	atom	cgnr	charge	mass
     1       CRL1      1     CHL1     C3      1     0.140000    12.0110   ; qtot  0.140
     2       HGA1      1     CHL1     H3      2     0.090000     1.0080   ; qtot  0.230
     3        OHL      1     CHL1     O3      3    -0.660000    15.9994   ; qtot -0.430
     4        HOL      1     CHL1    H3'      4     0.430000     1.0080   ; qtot -0.000
     5       CRL2      1     CHL1     C4      5    -0.180000    12.0110   ; qtot -0.180
     6       HGA2      1     CHL1    H4A      6     0.090000     1.0080   ; qtot -0.090
     7       HGA2      1     CHL1    H4B      7     0.090000     1.0080   ; qtot -0.000
     8       CEL1      1     CHL1     C5      8     0.000000    12.0110   ; qtot -0.000
     9       CEL1      1     CHL1     C6      9    -0.150000    12.0110   ; qtot -0.150
    10       HEL1      1     CHL1     H6     10     0.150000     1.0080   ; qtot -0.000
    11       CRL2      1     CHL1     C7     11    -0.180000    12.0110   ; qtot -0.180
    12       HGA2      1     CHL1    H7A     12     0.090000     1.0080   ; qtot -0.090
    13       HGA2      1     CHL1    H7B     13     0.090000     1.0080   ; qtot -0.000
    14       CRL1      1     CHL1     C8     14    -0.090000    12.0110   ; qtot -0.090
    15       HGA1      1     CHL1     H8     15     0.090000     1.0080   ; qtot -0.000
    16       CRL1      1     CHL1    C14     16    -0.090000    12.0110   ; qtot -0.090
    17       HGA1      1     CHL1    H14     17     0.090000     1.0080   ; qtot -0.000
    18       CRL2      1     CHL1    C15     18    -0.180000    12.0110   ; qtot -0.180
    19       HGA2      1     CHL1   H15A     19     0.090000     1.0080   ; qtot -0.090
    20       HGA2      1     CHL1   H15B     20     0.090000     1.0080   ; qtot -0.000
    21       CRL2      1     CHL1    C16     21    -0.180000    12.0110   ; qtot -0.180
    22       HGA2      1     CHL1   H16A     22     0.090000     1.0080   ; qtot -0.090
    23       HGA2      1     CHL1   H16B     23     0.090000     1.0080   ; qtot -0.000
    24       CRL1      1     CHL1    C17     24    -0.090000    12.0110   ; qtot -0.090
    25       HGA1      1     CHL1    H17     25     0.090000     1.0080   ; qtot -0.000
    26       CRL1      1     CHL1    C13     26     0.000000    12.0110   ; qtot -0.000
    27       CTL3      1     CHL1    C18     27    -0.270000    12.0110   ; qtot -0.270
    28       HAL3      1     CHL1   H18A     28     0.090000     1.0080   ; qtot -0.180
    29       HAL3      1     CHL1   H18B     29     0.090000     1.0080   ; qtot -0.090
    30       HAL3      1     CHL1   H18C     30     0.090000     1.0080   ; qtot -0.000
    31       CRL2      1     CHL1    C12     31    -0.180000    12.0110   ; qtot -0.180
    32       HGA2      1     CHL1   H12A     32     0.090000     1.0080   ; qtot -0.090
    33       HGA2      1     CHL1   H12B     33     0.090000     1.0080   ; qtot -0.000
    34       CRL2      1     CHL1    C11     34    -0.180000    12.0110   ; qtot -0.180
    35       HGA2      1     CHL1   H11A     35     0.090000     1.0080   ; qtot -0.090
    36       HGA2      1     CHL1   H11B     36     0.090000     1.0080   ; qtot -0.000
    37       CRL1      1     CHL1     C9     37    -0.090000    12.0110   ; qtot -0.090
    38       HGA1      1     CHL1     H9     38     0.090000     1.0080   ; qtot -0.000
    39       CRL1      1     CHL1    C10     39     0.000000    12.0110   ; qtot -0.000
    40       CTL3      1     CHL1    C19     40    -0.270000    12.0110   ; qtot -0.270
    41       HAL3      1     CHL1   H19A     41     0.090000     1.0080   ; qtot -0.180
    42       HAL3      1     CHL1   H19B     42     0.090000     1.0080   ; qtot -0.090
    43       HAL3      1     CHL1   H19C     43     0.090000     1.0080   ; qtot -0.000
    44       CRL2      1     CHL1     C1     44    -0.180000    12.0110   ; qtot -0.180
    45       HGA2      1     CHL1    H1A     45     0.090000     1.0080   ; qtot -0.090
    46       HGA2      1     CHL1    H1B     46     0.090000     1.0080   ; qtot -0.000
    47       CRL2      1     CHL1     C2     47    -0.180000    12.0110   ; qtot -0.180
    48       HGA2      1     CHL1    H2A     48     0.090000     1.0080   ; qtot -0.090
    49       HGA2      1     CHL1    H2B     49     0.090000     1.0080   ; qtot -0.000
    50       CTL1      1     CHL1    C20     50    -0.090000    12.0110   ; qtot -0.090
    51       HAL1      1     CHL1    H20     51     0.090000     1.0080   ; qtot -0.000
    52       CTL3      1     CHL1    C21     52    -0.270000    12.0110   ; qtot -0.270
    53       HAL3      1     CHL1   H21A     53     0.090000     1.0080   ; qtot -0.180
    54       HAL3      1     CHL1   H21B     54     0.090000     1.0080   ; qtot -0.090
    55       HAL3      1     CHL1   H21C     55     0.090000     1.0080   ; qtot -0.000
    56       CTL2      1     CHL1    C22     56    -0.180000    12.0110   ; qtot -0.180
    57       HAL2      1     CHL1   H22A     57     0.090000     1.0080   ; qtot -0.090
    58       HAL2      1     CHL1   H22B     58     0.090000     1.0080   ; qtot -0.000
    59       CTL2      1     CHL1    C23     59    -0.180000    12.0110   ; qtot -0.180
    60       HAL2      1     CHL1   H23A     60     0.090000     1.0080   ; qtot -0.090
    61       HAL2      1     CHL1   H23B     61     0.090000     1.0080   ; qtot -0.000
    62       CTL2      1     CHL1    C24     62    -0.180000    12.0110   ; qtot -0.180
    63       HAL2      1     CHL1   H24A     63     0.090000     1.0080   ; qtot -0.090
    64       HAL2      1     CHL1   H24B     64     0.090000     1.0080   ; qtot -0.000
    65       CTL1      1     CHL1    C25     65    -0.090000    12.0110   ; qtot -0.090
    66       HAL1      1     CHL1    H25     66     0.090000     1.0080   ; qtot -0.000
    67       CTL3      1     CHL1    C26     67    -0.270000    12.0110   ; qtot -0.270
    68       HAL3      1     CHL1   H26A     68     0.090000     1.0080   ; qtot -0.180
    69       HAL3      1     CHL1   H26B     69     0.090000     1.0080   ; qtot -0.090
    70       HAL3      1     CHL1   H26C     70     0.090000     1.0080   ; qtot -0.000
    71       CTL3      1     CHL1    C27     71    -0.270000    12.0110   ; qtot -0.270
    72       HAL3      1     CHL1   H27A     72     0.090000     1.0080   ; qtot -0.180
    73       HAL3      1     CHL1   H27B     73     0.090000     1.0080   ; qtot -0.090
    74       HAL3      1     CHL1   H27C     74     0.090000     1.0080   ; qtot -0.000

[ bonds ]
; ai	aj	funct	b0	Kb
    1     2     1
    1     3     1
    1     5     1
    1    47     1
    3     4     1
    5     6     1
    5     7     1
    5     8     1
    8     9     1
    8    39     1
    9    10     1
    9    11     1
   11    12     1
   11    13     1
   11    14     1
   14    15     1
   14    16     1
   14    37     1
   16    17     1
   16    18     1
   16    26     1
   18    19     1
   18    20     1
   18    21     1
   21    22     1
   21    23     1
   21    24     1
   24    25     1
   24    26     1
   24    50     1
   26    27     1
   26    31     1
   27    28     1
   27    29     1
   27    30     1
   31    32     1
   31    33     1
   31    34     1
   34    35     1
   34    36     1
   34    37     1
   37    38     1
   37    39     1
   39    40     1
   39    44     1
   40    41     1
   40    42     1
   40    43     1
   44    45     1
   44    46     1
   47    44     1
   47    48     1
   47    49     1
   50    51     1
   50    52     1
   50    56     1
   52    53     1
   52    54     1
   52    55     1
   56    57     1
   56    58     1
   56    59     1
   59    60     1
   59    61     1
   59    62     1
   62    63     1
   62    64     1
   62    65     1
   65    66     1
   65    67     1
   65    71     1
   67    68     1
   67    69     1
   67    70     1
   71    72     1
   71    73     1
   71    74     1

[ pairs ]
; ai	aj	funct	c6	c12 or
; ai	aj	funct	fudgeQQ	q1	q2	c6	c12
    1     9     1
    1    39     1
    1    45     1
    1    46     1
    2     4     1
    2     6     1
    2     7     1
    2     8     1
    2    44     1
    2    48     1
    2    49     1
    3     6     1
    3     7     1
    3     8     1
    3    44     1
    3    48     1
    3    49     1
    4     5     1
    4    47     1
    5    10     1
    5    11     1
    5    37     1
    5    40     1
    5    44     1
    5    48     1
    5    49     1
    6     9     1
    6    39     1
    6    47     1
    7     9     1
    7    39     1
    7    47     1
    8    12     1
    8    13     1
    8    14     1
    8    34     1
    8    38     1
    8    41     1
    8    42     1
    8    43     1
    8    45     1
    8    46     1
    8    47     1
    9    15     1
    9    16     1
    9    37     1
    9    40     1
    9    44     1
   10    12     1
   10    13     1
   10    14     1
   10    39     1
   11    17     1
   11    18     1
   11    26     1
   11    34     1
   11    38     1
   11    39     1
   12    15     1
   12    16     1
   12    37     1
   13    15     1
   13    16     1
   13    37     1
   14    19     1
   14    20     1
   14    21     1
   14    24     1
   14    27     1
   14    31     1
   14    35     1
   14    36     1
   14    40     1
   14    44     1
   15    17     1
   15    18     1
   15    26     1
   15    34     1
   15    38     1
   15    39     1
   16    22     1
   16    23     1
   16    25     1
   16    28     1
   16    29     1
   16    30     1
   16    32     1
   16    33     1
   16    34     1
   16    38     1
   16    39     1
   16    50     1
   17    19     1
   17    20     1
   17    21     1
   17    24     1
   17    27     1
   17    31     1
   17    37     1
   18    25     1
   18    27     1
   18    31     1
   18    37     1
   18    50     1
   19    22     1
   19    23     1
   19    24     1
   19    26     1
   20    22     1
   20    23     1
   20    24     1
   20    26     1
   21    27     1
   21    31     1
   21    51     1
   21    52     1
   21    56     1
   22    25     1
   22    26     1
   22    50     1
   23    25     1
   23    26     1
   23    50     1
   24    28     1
   24    29     1
   24    30     1
   24    32     1
   24    33     1
   24    34     1
   24    53     1
   24    54     1
   24    55     1
   24    57     1
   24    58     1
   24    59     1
   25    27     1
   25    31     1
   25    51     1
   25    52     1
   25    56     1
   26    35     1
   26    36     1
   26    37     1
   26    51     1
   26    52     1
   26    56     1
   27    32     1
   27    33     1
   27    34     1
   27    50     1
   28    31     1
   29    31     1
   30    31     1
   31    38     1
   31    39     1
   31    50     1
   32    35     1
   32    36     1
   32    37     1
   33    35     1
   33    36     1
   33    37     1
   34    40     1
   34    44     1
   35    38     1
   35    39     1
   36    38     1
   36    39     1
   37    41     1
   37    42     1
   37    43     1
   37    45     1
   37    46     1
   37    47     1
   38    40     1
   38    44     1
   39    48     1
   39    49     1
   40    45     1
   40    46     1
   40    47     1
   41    44     1
   42    44     1
   43    44     1
   45    48     1
   45    49     1
   46    48     1
   46    49     1
   50    60     1
   50    61     1
   50    62     1
   51    53     1
   51    54     1
   51    55     1
   51    57     1
   51    58     1
   51    59     1
   52    57     1
   52    58     1
   52    59     1
   53    56     1
   54    56     1
   55    56     1
   56    63     1
   56    64     1
   56    65     1
   57    60     1
   57    61     1
   57    62     1
   58    60     1
   58    61     1
   58    62     1
   59    66     1
   59    67     1
   59    71     1
   60    63     1
   60    64     1
   60    65     1
   61    63     1
   61    64     1
   61    65     1
   62    68     1
   62    69     1
   62    70     1
   62    72     1
   62    73     1
   62    74     1
   63    66     1
   63    67     1
   63    71     1
   64    66     1
   64    67     1
   64    71     1
   66    68     1
   66    69     1
   66    70     1
   66    72     1
   66    73     1
   66    74     1
   67    72     1
   67    73     1
   67    74     1
   68    71     1
   69    71     1
   70    71     1

[ angles ] 
; ai	aj	ak	funct	th0	cth	S0	Kub
    2     1     3     5
    2     1     5     5
    2     1    47     5
    3     1     5     5
    3     1    47     5
    5     1    47     5
    1     3     4     5
    1     5     6     5
    1     5     7     5
    1     5     8     5
    6     5     7     5
    6     5     8     5
    7     5     8     5
    5     8     9     5
    5     8    39     5
    9     8    39     5
    8     9    10     5
    8     9    11     5
   10     9    11     5
    9    11    12     5
    9    11    13     5
    9    11    14     5
   12    11    13     5
   12    11    14     5
   13    11    14     5
   11    14    15     5
   11    14    16     5
   11    14    37     5
   15    14    16     5
   15    14    37     5
   16    14    37     5
   14    16    17     5
   14    16    18     5
   14    16    26     5
   17    16    18     5
   17    16    26     5
   18    16    26     5
   16    18    19     5
   16    18    20     5
   16    18    21     5
   19    18    20     5
   19    18    21     5
   20    18    21     5
   18    21    22     5
   18    21    23     5
   18    21    24     5
   22    21    23     5
   22    21    24     5
   23    21    24     5
   21    24    25     5
   21    24    26     5
   21    24    50     5
   25    24    26     5
   25    24    50     5
   26    24    50     5
   16    26    24     5
   16    26    27     5
   16    26    31     5
   24    26    27     5
   24    26    31     5
   27    26    31     5
   26    27    28     5
   26    27    29     5
   26    27    30     5
   28    27    29     5
   28    27    30     5
   29    27    30     5
   26    31    32     5
   26    31    33     5
   26    31    34     5
   32    31    33     5
   32    31    34     5
   33    31    34     5
   31    34    35     5
   31    34    36     5
   31    34    37     5
   35    34    36     5
   35    34    37     5
   36    34    37     5
   14    37    34     5
   14    37    38     5
   14    37    39     5
   34    37    38     5
   34    37    39     5
   38    37    39     5
    8    39    37     5
    8    39    40     5
    8    39    44     5
   37    39    40     5
   37    39    44     5
   40    39    44     5
   39    40    41     5
   39    40    42     5
   39    40    43     5
   41    40    42     5
   41    40    43     5
   42    40    43     5
   39    44    45     5
   39    44    46     5
   39    44    47     5
   45    44    46     5
   45    44    47     5
   46    44    47     5
    1    47    44     5
    1    47    48     5
    1    47    49     5
   44    47    48     5
   44    47    49     5
   48    47    49     5
   24    50    51     5
   24    50    52     5
   24    50    56     5
   51    50    52     5
   51    50    56     5
   52    50    56     5
   50    52    53     5
   50    52    54     5
   50    52    55     5
   53    52    54     5
   53    52    55     5
   54    52    55     5
   50    56    57     5
   50    56    58     5
   50    56    59     5
   57    56    58     5
   57    56    59     5
   58    56    59     5
   56    59    60     5
   56    59    61     5
   56    59    62     5
   60    59    61     5
   60    59    62     5
   61    59    62     5
   59    62    63     5
   59    62    64     5
   59    62    65     5
   63    62    64     5
   63    62    65     5
   64    62    65     5
   62    65    66     5
   62    65    67     5
   62    65    71     5
   66    65    67     5
   66    65    71     5
   67    65    71     5
   65    67    68     5
   65    67    69     5
   65    67    70     5
   68    67    69     5
   68    67    70     5
   69    67    70     5
   65    71    72     5
   65    71    73     5
   65    71    74     5
   72    71    73     5
   72    71    74     5
   73    71    74     5

[ dihedrals ]
; ai	aj	ak	al	funct	phi0	cp	mult
    2     1     3     4     9
    2     1     5     6     9
    2     1     5     7     9
    2     1     5     8     9
    3     1     5     6     9
    3     1     5     7     9
    3     1     5     8     9
    2     1    47    44     9
    2     1    47    48     9
    2     1    47    49     9
    3     1    47    44     9
    3     1    47    48     9
    3     1    47    49     9
    5     1    47    44     9
    5     1    47    48     9
    5     1    47    49     9
    4     3     1     5     9
    4     3     1    47     9
    6     5     1    47     9
    7     5     1    47     9
    8     5     1    47     9
    1     5     8     9     9
    1     5     8    39     9
    6     5     8     9     9
    6     5     8    39     9
    7     5     8     9     9
    7     5     8    39     9
    5     8     9    10     9
    5     8     9    11     9
    5     8    39    37     9
    5     8    39    40     9
    5     8    39    44     9
    9     8    39    37     9
    9     8    39    40     9
    9     8    39    44     9
   10     9     8    39     9
   11     9     8    39     9
    8     9    11    12     9
    8     9    11    13     9
    8     9    11    14     9
   10     9    11    12     9
   10     9    11    13     9
   10     9    11    14     9
    9    11    14    15     9
    9    11    14    16     9
    9    11    14    37     9
   12    11    14    15     9
   12    11    14    16     9
   12    11    14    37     9
   13    11    14    15     9
   13    11    14    16     9
   13    11    14    37     9
   11    14    16    17     9
   11    14    16    18     9
   11    14    16    26     9
   15    14    16    17     9
   15    14    16    18     9
   15    14    16    26     9
   11    14    37    34     9
   11    14    37    38     9
   11    14    37    39     9
   15    14    37    34     9
   15    14    37    38     9
   15    14    37    39     9
   16    14    37    34     9
   16    14    37    38     9
   16    14    37    39     9
   17    16    14    37     9
   18    16    14    37     9
   26    16    14    37     9
   14    16    18    19     9
   14    16    18    20     9
   14    16    18    21     9
   17    16    18    19     9
   17    16    18    20     9
   17    16    18    21     9
   14    16    26    24     9
   14    16    26    27     9
   14    16    26    31     9
   17    16    26    24     9
   17    16    26    27     9
   17    16    26    31     9
   18    16    26    24     9
   18    16    26    27     9
   18    16    26    31     9
   19    18    16    26     9
   20    18    16    26     9
   21    18    16    26     9
   16    18    21    22     9
   16    18    21    23     9
   16    18    21    24     9
   19    18    21    22     9
   19    18    21    23     9
   19    18    21    24     9
   20    18    21    22     9
   20    18    21    23     9
   20    18    21    24     9
   18    21    24    25     9
   18    21    24    26     9
   18    21    24    50     9
   22    21    24    25     9
   22    21    24    26     9
   22    21    24    50     9
   23    21    24    25     9
   23    21    24    26     9
   23    21    24    50     9
   21    24    26    27     9
   21    24    26    31     9
   25    24    26    27     9
   25    24    26    31     9
   21    24    50    51     9
   21    24    50    52     9
   21    24    50    56     9
   25    24    50    51     9
   25    24    50    52     9
   25    24    50    56     9
   26    24    50    51     9
   26    24    50    52     9
   26    24    50    56     9
   16    26    24    21     9
   16    26    24    25     9
   16    26    24    50     9
   27    26    24    50     9
   31    26    24    50     9
   16    26    27    28     9
   16    26    27    29     9
   16    26    27    30     9
   24    26    27    28     9
   24    26    27    29     9
   24    26    27    30     9
   16    26    31    32     9
   16    26    31    33     9
   16    26    31    34     9
   24    26    31    32     9
   24    26    31    33     9
   24    26    31    34     9
   27    26    31    32     9
   27    26    31    33     9
   27    26    31    34     9
   28    27    26    31     9
   29    27    26    31     9
   30    27    26    31     9
   26    31    34    35     9
   26    31    34    36     9
   26    31    34    37     9
   32    31    34    35     9
   32    31    34    36     9
   32    31    34    37     9
   33    31    34    35     9
   33    31    34    36     9
   33    31    34    37     9
   31    34    37    38     9
   31    34    37    39     9
   35    34    37    38     9
   35    34    37    39     9
   36    34    37    38     9
   36    34    37    39     9
   14    37    34    31     9
   14    37    34    35     9
   14    37    34    36     9
   14    37    39    40     9
   14    37    39    44     9
   34    37    39    40     9
   34    37    39    44     9
   38    37    39    40     9
   38    37    39    44     9
    8    39    37    14     9
    8    39    37    34     9
    8    39    37    38     9
    8    39    40    41     9
    8    39    40    42     9
    8    39    40    43     9
   37    39    40    41     9
   37    39    40    42     9
   37    39    40    43     9
    8    39    44    45     9
    8    39    44    46     9
    8    39    44    47     9
   37    39    44    45     9
   37    39    44    46     9
   37    39    44    47     9
   40    39    44    45     9
   40    39    44    46     9
   40    39    44    47     9
   41    40    39    44     9
   42    40    39    44     9
   43    40    39    44     9
   39    44    47    48     9
   39    44    47    49     9
   45    44    47    48     9
   45    44    47    49     9
   46    44    47    48     9
   46    44    47    49     9
    1    47    44    39     9
    1    47    44    45     9
    1    47    44    46     9
   24    50    52    53     9
   24    50    52    54     9
   24    50    52    55     9
   51    50    52    53     9
   51    50    52    54     9
   51    50    52    55     9
   24    50    56    57     9
   24    50    56    58     9
   24    50    56    59     9
   51    50    56    57     9
   51    50    56    58     9
   51    50    56    59     9
   52    50    56    57     9
   52    50    56    58     9
   52    50    56    59     9
   53    52    50    56     9
   54    52    50    56     9
   55    52    50    56     9
   50    56    59    60     9
   50    56    59    61     9
   50    56    59    62     9
   57    56    59    60     9
   57    56    59    61     9
   57    56    59    62     9
   58    56    59    60     9
   58    56    59    61     9
   58    56    59    62     9
   56    59    62    63     9
   56    59    62    64     9
   56    59    62    65     9
   60    59    62    63     9
   60    59    62    64     9
   60    59    62    65     9
   61    59    62    63     9
   61    59    62    64     9
   61    59    62    65     9
   59    62    65    66     9
   59    62    65    67     9
   59    62    65    71     9
   63    62    65    66     9
   63    62    65    67     9
   63    62    65    71     9
   64    62    65    66     9
   64    62    65    67     9
   64    62    65    71     9
   62    65    67    68     9
   62    65    67    69     9
   62    65    67    70     9
   66    65    67    68     9
   66    65    67    69     9
   66    65    67    70     9
   62    65    71    72     9
   62    65    71    73     9
   62    65    71    74     9
   66    65    71    72     9
   66    65    71    73     9
   66    65    71    74     9
   67    65    71    72     9
   67    65    71    73     9
   67    65    71    74     9
   68    67    65    71     9
   69    67    65    71     9
   70    67    65    71     9

[ position_restraints ]
    3     1     0.0             0.0            1000.0

[ dihedral_restraints ]
;;
;; Generated by CHARMM-GUI FF-Converter
;;
;; Correspondance:
;; jul316@lehigh.edu or wonpil@lehigh.edu
;;
;; GROMACS topology file for POPE
;;


[ moleculetype ]
; name	nrexcl
POPE	     3

[ atoms ]
; nr	type	resnr	residu	atom	cgnr	charge	mass
     1       NH3L      2     POPE      N      1    -0.300000    14.0070   ; qtot -0.300
     2        HCL      2     POPE    HN1      2     0.330000     1.0080   ; qtot  0.030
     3        HCL      2     POPE    HN2      3     0.330000     1.0080   ; qtot  0.360
     4        HCL      2     POPE    HN3      4     0.330000     1.0080   ; qtot  0.690
     5       CTL2      2     POPE    C12      5     0.130000    12.0110   ; qtot  0.820
     6       HAL2      2     POPE   H12A      6     0.090000     1.0080   ; qtot  0.910
     7       HAL2      2     POPE   H12B      7     0.090000     1.0080   ; qtot  1.000
     8       CTL2      2     POPE    C11      8    -0.080000    12.0110   ; qtot  0.920
     9       HAL2      2     POPE   H11A      9     0.090000     1.0080   ; qtot  1.010
    10       HAL2      2     POPE   H11B     10     0.090000     1.0080   ; qtot  1.100
    11         PL      2     POPE      P     11     1.500000    30.9740   ; qtot  2.600
    12        O2L      2     POPE    O13     12    -0.780000    15.9994   ; qtot  1.820
    13        O2L      2     POPE    O14     13    -0.780000    15.9994   ; qtot  1.040
    14       OSLP      2     POPE    O11     14    -0.570000    15.9994   ; qtot  0.470
    15       OSLP      2     POPE    O12     15    -0.570000    15.9994   ; qtot -0.100
    16       CTL2      2     POPE     C1     16    -0.080000    12.0110   ; qtot -0.180
    17       HAL2      2     POPE     HA     17     0.090000     1.0080   ; qtot -0.090
    18       HAL2      2     POPE     HB     18     0.090000     1.0080   ; qtot  0.000
    19       CTL1      2     POPE     C2     19     0.170000    12.0110   ; qtot  0.170
    20       HAL1      2     POPE     HS     20     0.090000     1.0080   ; qtot  0.260
    21        OSL      2     POPE    O21     21    -0.490000    15.9994   ; qtot -0.230
    22         CL      2     POPE    C21     22     0.900000    12.0110   ; qtot  0.670
    23        OBL      2     POPE    O22     23    -0.630000    15.9994   ; qtot  0.040
    24       CTL2      2     POPE    C22     24    -0.220000    12.0110   ; qtot -0.180
    25       HAL2      2     POPE    H2R     25     0.090000     1.0080   ; qtot -0.090
    26       HAL2      2     POPE    H2S     26     0.090000     1.0080   ; qtot  0.000
    27       CTL2      2     POPE     C3     27     0.080000    12.0110   ; qtot  0.080
    28       HAL2      2     POPE     HX     28     0.090000     1.0080   ; qtot  0.170
    29       HAL2      2     POPE     HY     29     0.090000     1.0080   ; qtot  0.260
    30        OSL      2     POPE    O31     30    -0.490000    15.9994   ; qtot -0.230
    31         CL      2     POPE    C31     31     0.900000    12.0110   ; qtot  0.670
    32        OBL      2     POPE    O32     32    -0.630000    15.9994   ; qtot  0.040
    33       CTL2      2     POPE    C32     33    -0.220000    12.0110   ; qtot -0.180
    34       HAL2      2     POPE    H2X     34     0.090000     1.0080   ; qtot -0.090
    35       HAL2      2     POPE    H2Y     35     0.090000     1.0080   ; qtot  0.000
    36       CTL2      2     POPE    C23     36    -0.180000    12.0110   ; qtot -0.180
    37       HAL2      2     POPE    H3R     37     0.090000     1.0080   ; qtot -0.090
    38       HAL2      2     POPE    H3S     38     0.090000     1.0080   ; qtot  0.000
    39       CTL2      2     POPE    C24     39    -0.180000    12.0110   ; qtot -0.180
    40       HAL2      2     POPE    H4R     40     0.090000     1.0080   ; qtot -0.090
    41       HAL2      2     POPE    H4S     41     0.090000     1.0080   ; qtot  0.000
    42       CTL2      2     POPE    C25     42    -0.180000    12.0110   ; qtot -0.180
    43       HAL2      2     POPE    H5R     43     0.090000     1.0080   ; qtot -0.090
    44       HAL2      2     POPE    H5S     44     0.090000     1.0080   ; qtot  0.000
    45       CTL2      2     POPE    C26     45    -0.180000    12.0110   ; qtot -0.180
    46       HAL2      2     POPE    H6R     46     0.090000     1.0080   ; qtot -0.090
    47       HAL2      2     POPE    H6S     47     0.090000     1.0080   ; qtot  0.000
    48       CTL2      2     POPE    C27     48    -0.180000    12.0110   ; qtot -0.180
    49       HAL2      2     POPE    H7R     49     0.090000     1.0080   ; qtot -0.090
    50       HAL2      2     POPE    H7S     50     0.090000     1.0080   ; qtot  0.000
    51       CTL2      2     POPE    C28     51    -0.180000    12.0110   ; qtot -0.180
    52       HAL2      2     POPE    H8R     52     0.090000     1.0080   ; qtot -0.090
    53       HAL2      2     POPE    H8S     53     0.090000     1.0080   ; qtot  0.000
    54       CEL1      2     POPE    C29     54    -0.150000    12.0110   ; qtot -0.150
    55       HEL1      2     POPE    H91     55     0.150000     1.0080   ; qtot  0.000
    56       CEL1      2     POPE   C210     56    -0.150000    12.0110   ; qtot -0.150
    57       HEL1      2     POPE   H101     57     0.150000     1.0080   ; qtot  0.000
    58       CTL2      2     POPE   C211     58    -0.180000    12.0110   ; qtot -0.180
    59       HAL2      2     POPE   H11R     59     0.090000     1.0080   ; qtot -0.090
    60       HAL2      2     POPE   H11S     60     0.090000     1.0080   ; qtot  0.000
    61       CTL2      2     POPE   C212     61    -0.180000    12.0110   ; qtot -0.180
    62       HAL2      2     POPE   H12R     62     0.090000     1.0080   ; qtot -0.090
    63       HAL2      2     POPE   H12S     63     0.090000     1.0080   ; qtot  0.000
    64       CTL2      2     POPE   C213     64    -0.180000    12.0110   ; qtot -0.180
    65       HAL2      2     POPE   H13R     65     0.090000     1.0080   ; qtot -0.090
    66       HAL2      2     POPE   H13S     66     0.090000     1.0080   ; qtot  0.000
    67       CTL2      2     POPE   C214     67    -0.180000    12.0110   ; qtot -0.180
    68       HAL2      2     POPE   H14R     68     0.090000     1.0080   ; qtot -0.090
    69       HAL2      2     POPE   H14S     69     0.090000     1.0080   ; qtot  0.000
    70       CTL2      2     POPE   C215     70    -0.180000    12.0110   ; qtot -0.180
    71       HAL2      2     POPE   H15R     71     0.090000     1.0080   ; qtot -0.090
    72       HAL2      2     POPE   H15S     72     0.090000     1.0080   ; qtot  0.000
    73       CTL2      2     POPE   C216     73    -0.180000    12.0110   ; qtot -0.180
    74       HAL2      2     POPE   H16R     74     0.090000     1.0080   ; qtot -0.090
    75       HAL2      2     POPE   H16S     75     0.090000     1.0080   ; qtot  0.000
    76       CTL2      2     POPE   C217     76    -0.180000    12.0110   ; qtot -0.180
    77       HAL2      2     POPE   H17R     77     0.090000     1.0080   ; qtot -0.090
    78       HAL2      2     POPE   H17S     78     0.090000     1.0080   ; qtot  0.000
    79       CTL3      2     POPE   C218     79    -0.270000    12.0110   ; qtot -0.270
    80       HAL3      2     POPE   H18R     80     0.090000     1.0080   ; qtot -0.180
    81       HAL3      2     POPE   H18S     81     0.090000     1.0080   ; qtot -0.090
    82       HAL3      2     POPE   H18T     82     0.090000     1.0080   ; qtot  0.000
    83       CTL2      2     POPE    C33     83    -0.180000    12.0110   ; qtot -0.180
    84       HAL2      2     POPE    H3X     84     0.090000     1.0080   ; qtot -0.090
    85       HAL2      2     POPE    H3Y     85     0.090000     1.0080   ; qtot  0.000
    86       CTL2      2     POPE    C34     86    -0.180000    12.0110   ; qtot -0.180
    87       HAL2      2     POPE    H4X     87     0.090000     1.0080   ; qtot -0.090
    88       HAL2      2     POPE    H4Y     88     0.090000     1.0080   ; qtot  0.000
    89       CTL2      2     POPE    C35     89    -0.180000    12.0110   ; qtot -0.180
    90       HAL2      2     POPE    H5X     90     0.090000     1.0080   ; qtot -0.090
    91       HAL2      2     POPE    H5Y     91     0.090000     1.0080   ; qtot  0.000
    92       CTL2      2     POPE    C36     92    -0.180000    12.0110   ; qtot -0.180
    93       HAL2      2     POPE    H6X     93     0.090000     1.0080   ; qtot -0.090
    94       HAL2      2     POPE    H6Y     94     0.090000     1.0080   ; qtot  0.000
    95       CTL2      2     POPE    C37     95    -0.180000    12.0110   ; qtot -0.180
    96       HAL2      2     POPE    H7X     96     0.090000     1.0080   ; qtot -0.090
    97       HAL2      2     POPE    H7Y     97     0.090000     1.0080   ; qtot  0.000
    98       CTL2      2     POPE    C38     98    -0.180000    12.0110   ; qtot -0.180
    99       HAL2      2     POPE    H8X     99     0.090000     1.0080   ; qtot -0.090
   100       HAL2      2     POPE    H8Y    100     0.090000     1.0080   ; qtot  0.000
   101       CTL2      2     POPE    C39    101    -0.180000    12.0110   ; qtot -0.180
   102       HAL2      2     POPE    H9X    102     0.090000     1.0080   ; qtot -0.090
   103       HAL2      2     POPE    H9Y    103     0.090000     1.0080   ; qtot  0.000
   104       CTL2      2     POPE   C310    104    -0.180000    12.0110   ; qtot -0.180
   105       HAL2      2     POPE   H10X    105     0.090000     1.0080   ; qtot -0.090
   106       HAL2      2     POPE   H10Y    106     0.090000     1.0080   ; qtot  0.000
   107       CTL2      2     POPE   C311    107    -0.180000    12.0110   ; qtot -0.180
   108       HAL2      2     POPE   H11X    108     0.090000     1.0080   ; qtot -0.090
   109       HAL2      2     POPE   H11Y    109     0.090000     1.0080   ; qtot  0.000
   110       CTL2      2     POPE   C312    110    -0.180000    12.0110   ; qtot -0.180
   111       HAL2      2     POPE   H12X    111     0.090000     1.0080   ; qtot -0.090
   112       HAL2      2     POPE   H12Y    112     0.090000     1.0080   ; qtot  0.000
   113       CTL2      2     POPE   C313    113    -0.180000    12.0110   ; qtot -0.180
   114       HAL2      2     POPE   H13X    114     0.090000     1.0080   ; qtot -0.090
   115       HAL2      2     POPE   H13Y    115     0.090000     1.0080   ; qtot  0.000
   116       CTL2      2     POPE   C314    116    -0.180000    12.0110   ; qtot -0.180
   117       HAL2      2     POPE   H14X    117     0.090000     1.0080   ; qtot -0.090
   118       HAL2      2     POPE   H14Y    118     0.090000     1.0080   ; qtot  0.000
   119       CTL2      2     POPE   C315    119    -0.180000    12.0110   ; qtot -0.180
   120       HAL2      2     POPE   H15X    120     0.090000     1.0080   ; qtot -0.090
   121       HAL2      2     POPE   H15Y    121     0.090000     1.0080   ; qtot  0.000
   122       CTL3      2     POPE   C316    122    -0.270000    12.0110   ; qtot -0.270
   123       HAL3      2     POPE   H16X    123     0.090000     1.0080   ; qtot -0.180
   124       HAL3      2     POPE   H16Y    124     0.090000     1.0080   ; qtot -0.090
   125       HAL3      2     POPE   H16Z    125     0.090000     1.0080   ; qtot  0.000

[ bonds ]
; ai	aj	funct	b0	Kb
    1     2     1
    1     3     1
    1     4     1
    1     5     1
    5     6     1
    5     7     1
    5     8     1
    8     9     1
    8    10     1
    8    15     1
   11    12     1
   11    13     1
   11    14     1
   15    11     1
   16    14     1
   16    17     1
   16    18     1
   16    19     1
   19    20     1
   19    21     1
   19    27     1
   21    22     1
   22    23     1
   22    24     1
   24    25     1
   24    26     1
   24    36     1
   27    28     1
   27    29     1
   27    30     1
   30    31     1
   31    32     1
   31    33     1
   33    34     1
   33    35     1
   33    83     1
   36    37     1
   36    38     1
   36    39     1
   39    40     1
   39    41     1
   39    42     1
   42    43     1
   42    44     1
   42    45     1
   45    46     1
   45    47     1
   45    48     1
   48    49     1
   48    50     1
   48    51     1
   51    52     1
   51    53     1
   51    54     1
   54    55     1
   54    56     1
   56    57     1
   56    58     1
   58    59     1
   58    60     1
   58    61     1
   61    62     1
   61    63     1
   61    64     1
   64    65     1
   64    66     1
   64    67     1
   67    68     1
   67    69     1
   67    70     1
   70    71     1
   70    72     1
   70    73     1
   73    74     1
   73    75     1
   73    76     1
   76    77     1
   76    78     1
   76    79     1
   79    80     1
   79    81     1
   79    82     1
   83    84     1
   83    85     1
   83    86     1
   86    87     1
   86    88     1
   86    89     1
   89    90     1
   89    91     1
   89    92     1
   92    93     1
   92    94     1
   92    95     1
   95    96     1
   95    97     1
   95    98     1
   98    99     1
   98   100     1
   98   101     1
  101   102     1
  101   103     1
  101   104     1
  104   105     1
  104   106     1
  104   107     1
  107   108     1
  107   109     1
  107   110     1
  110   111     1
  110   112     1
  110   113     1
  113   114     1
  113   115     1
  113   116     1
  116   117     1
  116   118     1
  116   119     1
  119   120     1
  119   121     1
  119   122     1
  122   123     1
  122   124     1
  122   125     1

[ pairs ]
; ai	aj	funct	c6	c12 or
; ai	aj	funct	fudgeQQ	q1	q2	c6	c12
    1     9     1
    1    10     1
    1    15     1
    2     6     1
    2     7     1
    2     8     1
    3     6     1
    3     7     1
    3     8     1
    4     6     1
    4     7     1
    4     8     1
    5    11     1
    6     9     1
    6    10     1
    6    15     1
    7     9     1
    7    10     1
    7    15     1
    8    12     1
    8    13     1
    8    14     1
    9    11     1
   10    11     1
   11    17     1
   11    18     1
   11    19     1
   12    16     1
   13    16     1
   14    20     1
   14    21     1
   14    27     1
   15    16     1
   16    22     1
   16    28     1
   16    29     1
   16    30     1
   17    20     1
   17    21     1
   17    27     1
   18    20     1
   18    21     1
   18    27     1
   19    23     1
   19    24     1
   19    31     1
   20    22     1
   20    28     1
   20    29     1
   20    30     1
   21    25     1
   21    26     1
   21    28     1
   21    29     1
   21    30     1
   21    36     1
   22    27     1
   22    37     1
   22    38     1
   22    39     1
   23    25     1
   23    26     1
   23    36     1
   24    40     1
   24    41     1
   24    42     1
   25    37     1
   25    38     1
   25    39     1
   26    37     1
   26    38     1
   26    39     1
   27    32     1
   27    33     1
   28    31     1
   29    31     1
   30    34     1
   30    35     1
   30    83     1
   31    84     1
   31    85     1
   31    86     1
   32    34     1
   32    35     1
   32    83     1
   33    87     1
   33    88     1
   33    89     1
   34    84     1
   34    85     1
   34    86     1
   35    84     1
   35    85     1
   35    86     1
   36    43     1
   36    44     1
   36    45     1
   37    40     1
   37    41     1
   37    42     1
   38    40     1
   38    41     1
   38    42     1
   39    46     1
   39    47     1
   39    48     1
   40    43     1
   40    44     1
   40    45     1
   41    43     1
   41    44     1
   41    45     1
   42    49     1
   42    50     1
   42    51     1
   43    46     1
   43    47     1
   43    48     1
   44    46     1
   44    47     1
   44    48     1
   45    52     1
   45    53     1
   45    54     1
   46    49     1
   46    50     1
   46    51     1
   47    49     1
   47    50     1
   47    51     1
   48    55     1
   48    56     1
   49    52     1
   49    53     1
   49    54     1
   50    52     1
   50    53     1
   50    54     1
   51    57     1
   51    58     1
   52    55     1
   52    56     1
   53    55     1
   53    56     1
   54    59     1
   54    60     1
   54    61     1
   55    57     1
   55    58     1
   56    62     1
   56    63     1
   56    64     1
   57    59     1
   57    60     1
   57    61     1
   58    65     1
   58    66     1
   58    67     1
   59    62     1
   59    63     1
   59    64     1
   60    62     1
   60    63     1
   60    64     1
   61    68     1
   61    69     1
   61    70     1
   62    65     1
   62    66     1
   62    67     1
   63    65     1
   63    66     1
   63    67     1
   64    71     1
   64    72     1
   64    73     1
   65    68     1
   65    69     1
   65    70     1
   66    68     1
   66    69     1
   66    70     1
   67    74     1
   67    75     1
   67    76     1
   68    71     1
   68    72     1
   68    73     1
   69    71     1
   69    72     1
   69    73     1
   70    77     1
   70    78     1
   70    79     1
   71    74     1
   71    75     1
   71    76     1
   72    74     1
   72    75     1
   72    76     1
   73    80     1
   73    81     1
   73    82     1
   74    77     1
   74    78     1
   74    79     1
   75    77     1
   75    78     1
   75    79     1
   77    80     1
   77    81     1
   77    82     1
   78    80     1
   78    81     1
   78    82     1
   83    90     1
   83    91     1
   83    92     1
   84    87     1
   84    88     1
   84    89     1
   85    87     1
   85    88     1
   85    89     1
   86    93     1
   86    94     1
   86    95     1
   87    90     1
   87    91     1
   87    92     1
   88    90     1
   88    91     1
   88    92     1
   89    96     1
   89    97     1
   89    98     1
   90    93     1
   90    94     1
   90    95     1
   91    93     1
   91    94     1
   91    95     1
   92    99     1
   92   100     1
   92   101     1
   93    96     1
   93    97     1
   93    98     1
   94    96     1
   94    97     1
   94    98     1
   95   102     1
   95   103     1
   95   104     1
   96    99     1
   96   100     1
   96   101     1
   97    99     1
   97   100     1
   97   101     1
   98   105     1
   98   106     1
   98   107     1
   99   102     1
   99   103     1
   99   104     1
  100   102     1
  100   103     1
  100   104     1
  101   108     1
  101   109     1
  101   110     1
  102   105     1
  102   106     1
  102   107     1
  103   105     1
  103   106     1
  103   107     1
  104   111     1
  104   112     1
  104   113     1
  105   108     1
  105   109     1
  105   110     1
  106   108     1
  106   109     1
  106   110     1
  107   114     1
  107   115     1
  107   116     1
  108   111     1
  108   112     1
  108   113     1
  109   111     1
  109   112     1
  109   113     1
  110   117     1
  110   118     1
  110   119     1
  111   114     1
  111   115     1
  111   116     1
  112   114     1
  112   115     1
  112   116     1
  113   120     1
  113   121     1
  113   122     1
  114   117     1
  114   118     1
  114   119     1
  115   117     1
  115   118     1
  115   119     1
  116   123     1
  116   124     1
  116   125     1
  117   120     1
  117   121     1
  117   122     1
  118   120     1
  118   121     1
  118   122     1
  120   123     1
  120   124     1
  120   125     1
  121   123     1
  121   124     1
  121   125     1

[ angles ] 
; ai	aj	ak	funct	th0	cth	S0	Kub
    2     1     3     5
    2     1     4     5
    2     1     5     5
    3     1     4     5
    3     1     5     5
    4     1     5     5
    1     5     6     5
    1     5     7     5
    1     5     8     5
    6     5     7     5
    6     5     8     5
    7     5     8     5
    5     8     9     5
    5     8    10     5
    5     8    15     5
    9     8    10     5
    9     8    15     5
   10     8    15     5
   12    11    13     5
   12    11    14     5
   12    11    15     5
   13    11    14     5
   13    11    15     5
   14    11    15     5
   11    14    16     5
    8    15    11     5
   14    16    17     5
   14    16    18     5
   14    16    19     5
   17    16    18     5
   17    16    19     5
   18    16    19     5
   16    19    20     5
   16    19    21     5
   16    19    27     5
   20    19    21     5
   20    19    27     5
   21    19    27     5
   19    21    22     5
   21    22    23     5
   21    22    24     5
   23    22    24     5
   22    24    25     5
   22    24    26     5
   22    24    36     5
   25    24    26     5
   25    24    36     5
   26    24    36     5
   19    27    28     5
   19    27    29     5
   19    27    30     5
   28    27    29     5
   28    27    30     5
   29    27    30     5
   27    30    31     5
   30    31    32     5
   30    31    33     5
   32    31    33     5
   31    33    34     5
   31    33    35     5
   31    33    83     5
   34    33    35     5
   34    33    83     5
   35    33    83     5
   24    36    37     5
   24    36    38     5
   24    36    39     5
   37    36    38     5
   37    36    39     5
   38    36    39     5
   36    39    40     5
   36    39    41     5
   36    39    42     5
   40    39    41     5
   40    39    42     5
   41    39    42     5
   39    42    43     5
   39    42    44     5
   39    42    45     5
   43    42    44     5
   43    42    45     5
   44    42    45     5
   42    45    46     5
   42    45    47     5
   42    45    48     5
   46    45    47     5
   46    45    48     5
   47    45    48     5
   45    48    49     5
   45    48    50     5
   45    48    51     5
   49    48    50     5
   49    48    51     5
   50    48    51     5
   48    51    52     5
   48    51    53     5
   48    51    54     5
   52    51    53     5
   52    51    54     5
   53    51    54     5
   51    54    55     5
   51    54    56     5
   55    54    56     5
   54    56    57     5
   54    56    58     5
   57    56    58     5
   56    58    59     5
   56    58    60     5
   56    58    61     5
   59    58    60     5
   59    58    61     5
   60    58    61     5
   58    61    62     5
   58    61    63     5
   58    61    64     5
   62    61    63     5
   62    61    64     5
   63    61    64     5
   61    64    65     5
   61    64    66     5
   61    64    67     5
   65    64    66     5
   65    64    67     5
   66    64    67     5
   64    67    68     5
   64    67    69     5
   64    67    70     5
   68    67    69     5
   68    67    70     5
   69    67    70     5
   67    70    71     5
   67    70    72     5
   67    70    73     5
   71    70    72     5
   71    70    73     5
   72    70    73     5
   70    73    74     5
   70    73    75     5
   70    73    76     5
   74    73    75     5
   74    73    76     5
   75    73    76     5
   73    76    77     5
   73    76    78     5
   73    76    79     5
   77    76    78     5
   77    76    79     5
   78    76    79     5
   76    79    80     5
   76    79    81     5
   76    79    82     5
   80    79    81     5
   80    79    82     5
   81    79    82     5
   33    83    84     5
   33    83    85     5
   33    83    86     5
   84    83    85     5
   84    83    86     5
   85    83    86     5
   83    86    87     5
   83    86    88     5
   83    86    89     5
   87    86    88     5
   87    86    89     5
   88    86    89     5
   86    89    90     5
   86    89    91     5
   86    89    92     5
   90    89    91     5
   90    89    92     5
   91    89    92     5
   89    92    93     5
   89    92    94     5
   89    92    95     5
   93    92    94     5
   93    92    95     5
   94    92    95     5
   92    95    96     5
   92    95    97     5
   92    95    98     5
   96    95    97     5
   96    95    98     5
   97    95    98     5
   95    98    99     5
   95    98   100     5
   95    98   101     5
   99    98   100     5
   99    98   101     5
  100    98   101     5
   98   101   102     5
   98   101   103     5
   98   101   104     5
  102   101   103     5
  102   101   104     5
  103   101   104     5
  101   104   105     5
  101   104   106     5
  101   104   107     5
  105   104   106     5
  105   104   107     5
  106   104   107     5
  104   107   108     5
  104   107   109     5
  104   107   110     5
  108   107   109     5
  108   107   110     5
  109   107   110     5
  107   110   111     5
  107   110   112     5
  107   110   113     5
  111   110   112     5
  111   110   113     5
  112   110   113     5
  110   113   114     5
  110   113   115     5
  110   113   116     5
  114   113   115     5
  114   113   116     5
  115   113   116     5
  113   116   117     5
  113   116   118     5
  113   116   119     5
  117   116   118     5
  117   116   119     5
  118   116   119     5
  116   119   120     5
  116   119   121     5
  116   119   122     5
  120   119   121     5
  120   119   122     5
  121   119   122     5
  119   122   123     5
  119   122   124     5
  119   122   125     5
  123   122   124     5
  123   122   125     5
  124   122   125     5

[ dihedrals ]
; ai	aj	ak	al	funct	phi0	cp	mult
    2     1     5     6     9
    2     1     5     7     9
    2     1     5     8     9
    3     1     5     6     9
    3     1     5     7     9
    3     1     5     8     9
    4     1     5     6     9
    4     1     5     7     9
    4     1     5     8     9
    1     5     8     9     9
    1     5     8    10     9
    1     5     8    15     9
    6     5     8     9     9
    6     5     8    10     9
    6     5     8    15     9
    7     5     8     9     9
    7     5     8    10     9
    7     5     8    15     9
    5     8    15    11     9
    9     8    15    11     9
   10     8    15    11     9
   12    11    14    16     9
   13    11    14    16     9
   15    11    14    16     9
   11    14    16    17     9
   11    14    16    18     9
   11    14    16    19     9
    8    15    11    12     9
    8    15    11    13     9
    8    15    11    14     9
   14    16    19    20     9
   14    16    19    21     9
   14    16    19    27     9
   17    16    19    20     9
   17    16    19    21     9
   17    16    19    27     9
   18    16    19    20     9
   18    16    19    21     9
   18    16    19    27     9
   16    19    21    22     9
   20    19    21    22     9
   16    19    27    28     9
   16    19    27    29     9
   16    19    27    30     9
   20    19    27    28     9
   20    19    27    29     9
   20    19    27    30     9
   21    19    27    28     9
   21    19    27    29     9
   21    19    27    30     9
   22    21    19    27     9
   19    21    22    23     9
   19    21    22    24     9
   21    22    24    25     9
   21    22    24    26     9
   21    22    24    36     9
   23    22    24    25     9
   23    22    24    26     9
   23    22    24    36     9
   22    24    36    37     9
   22    24    36    38     9
   22    24    36    39     9
   25    24    36    37     9
   25    24    36    38     9
   25    24    36    39     9
   26    24    36    37     9
   26    24    36    38     9
   26    24    36    39     9
   19    27    30    31     9
   28    27    30    31     9
   29    27    30    31     9
   27    30    31    32     9
   27    30    31    33     9
   30    31    33    34     9
   30    31    33    35     9
   30    31    33    83     9
   32    31    33    34     9
   32    31    33    35     9
   32    31    33    83     9
   31    33    83    84     9
   31    33    83    85     9
   31    33    83    86     9
   34    33    83    84     9
   34    33    83    85     9
   34    33    83    86     9
   35    33    83    84     9
   35    33    83    85     9
   35    33    83    86     9
   24    36    39    40     9
   24    36    39    41     9
   24    36    39    42     9
   37    36    39    40     9
   37    36    39    41     9
   37    36    39    42     9
   38    36    39    40     9
   38    36    39    41     9
   38    36    39    42     9
   36    39    42    43     9
   36    39    42    44     9
   36    39    42    45     9
   40    39    42    43     9
   40    39    42    44     9
   40    39    42    45     9
   41    39    42    43     9
   41    39    42    44     9
   41    39    42    45     9
   39    42    45    46     9
   39    42    45    47     9
   39    42    45    48     9
   43    42    45    46     9
   43    42    45    47     9
   43    42    45    48     9
   44    42    45    46     9
   44    42    45    47     9
   44    42    45    48     9
   42    45    48    49     9
   42    45    48    50     9
   42    45    48    51     9
   46    45    48    49     9
   46    45    48    50     9
   46    45    48    51     9
   47    45    48    49     9
   47    45    48    50     9
   47    45    48    51     9
   45    48    51    52     9
   45    48    51    53     9
   45    48    51    54     9
   49    48    51    52     9
   49    48    51    53     9
   49    48    51    54     9
   50    48    51    52     9
   50    48    51    53     9
   50    48    51    54     9
   48    51    54    55     9
   48    51    54    56     9
   52    51    54    55     9
   52    51    54    56     9
   53    51    54    55     9
   53    51    54    56     9
   51    54    56    57     9
   51    54    56    58     9
   55    54    56    57     9
   55    54    56    58     9
   54    56    58    59     9
   54    56    58    60     9
   54    56    58    61     9
   57    56    58    59     9
   57    56    58    60     9
   57    56    58    61     9
   56    58    61    62     9
   56    58    61    63     9
   56    58    61    64     9
   59    58    61    62     9
   59    58    61    63     9
   59    58    61    64     9
   60    58    61    62     9
   60    58    61    63     9
   60    58    61    64     9
   58    61    64    65     9
   58    61    64    66     9
   58    61    64    67     9
   62    61    64    65     9
   62    61    64    66     9
   62    61    64    67     9
   63    61    64    65     9
   63    61    64    66     9
   63    61    64    67     9
   61    64    67    68     9
   61    64    67    69     9
   61    64    67    70     9
   65    64    67    68     9
   65    64    67    69     9
   65    64    67    70     9
   66    64    67    68     9
   66    64    67    69     9
   66    64    67    70     9
   64    67    70    71     9
   64    67    70    72     9
   64    67    70    73     9
   68    67    70    71     9
   68    67    70    72     9
   68    67    70    73     9
   69    67    70    71     9
   69    67    70    72     9
   69    67    70    73     9
   67    70    73    74     9
   67    70    73    75     9
   67    70    73    76     9
   71    70    73    74     9
   71    70    73    75     9
   71    70    73    76     9
   72    70    73    74     9
   72    70    73    75     9
   72    70    73    76     9
   70    73    76    77     9
   70    73    76    78     9
   70    73    76    79     9
   74    73    76    77     9
   74    73    76    78     9
   74    73    76    79     9
   75    73    76    77     9
   75    73    76    78     9
   75    73    76    79     9
   73    76    79    80     9
   73    76    79    81     9
   73    76    79    82     9
   77    76    79    80     9
   77    76    79    81     9
   77    76    79    82     9
   78    76    79    80     9
   78    76    79    81     9
   78    76    79    82     9
   33    83    86    87     9
   33    83    86    88     9
   33    83    86    89     9
   84    83    86    87     9
   84    83    86    88     9
   84    83    86    89     9
   85    83    86    87     9
   85    83    86    88     9
   85    83    86    89     9
   83    86    89    90     9
   83    86    89    91     9
   83    86    89    92     9
   87    86    89    90     9
   87    86    89    91     9
   87    86    89    92     9
   88    86    89    90     9
   88    86    89    91     9
   88    86    89    92     9
   86    89    92    93     9
   86    89    92    94     9
   86    89    92    95     9
   90    89    92    93     9
   90    89    92    94     9
   90    89    92    95     9
   91    89    92    93     9
   91    89    92    94     9
   91    89    92    95     9
   89    92    95    96     9
   89    92    95    97     9
   89    92    95    98     9
   93    92    95    96     9
   93    92    95    97     9
   93    92    95    98     9
   94    92    95    96     9
   94    92    95    97     9
   94    92    95    98     9
   92    95    98    99     9
   92    95    98   100     9
   92    95    98   101     9
   96    95    98    99     9
   96    95    98   100     9
   96    95    98   101     9
   97    95    98    99     9
   97    95    98   100     9
   97    95    98   101     9
   95    98   101   102     9
   95    98   101   103     9
   95    98   101   104     9
   99    98   101   102     9
   99    98   101   103     9
   99    98   101   104     9
  100    98   101   102     9
  100    98   101   103     9
  100    98   101   104     9
   98   101   104   105     9
   98   101   104   106     9
   98   101   104   107     9
  102   101   104   105     9
  102   101   104   106     9
  102   101   104   107     9
  103   101   104   105     9
  103   101   104   106     9
  103   101   104   107     9
  101   104   107   108     9
  101   104   107   109     9
  101   104   107   110     9
  105   104   107   108     9
  105   104   107   109     9
  105   104   107   110     9
  106   104   107   108     9
  106   104   107   109     9
  106   104   107   110     9
  104   107   110   111     9
  104   107   110   112     9
  104   107   110   113     9
  108   107   110   111     9
  108   107   110   112     9
  108   107   110   113     9
  109   107   110   111     9
  109   107   110   112     9
  109   107   110   113     9
  107   110   113   114     9
  107   110   113   115     9
  107   110   113   116     9
  111   110   113   114     9
  111   110   113   115     9
  111   110   113   116     9
  112   110   113   114     9
  112   110   113   115     9
  112   110   113   116     9
  110   113   116   117     9
  110   113   116   118     9
  110   113   116   119     9
  114   113   116   117     9
  114   113   116   118     9
  114   113   116   119     9
  115   113   116   117     9
  115   113   116   118     9
  115   113   116   119     9
  113   116   119   120     9
  113   116   119   121     9
  113   116   119   122     9
  117   116   119   120     9
  117   116   119   121     9
  117   116   119   122     9
  118   116   119   120     9
  118   116   119   121     9
  118   116   119   122     9
  116   119   122   123     9
  116   119   122   124     9
  116   119   122   125     9
  120   119   122   123     9
  120   119   122   124     9
  120   119   122   125     9
  121   119   122   123     9
  121   119   122   124     9
  121   119   122   125     9

[ dihedrals ]
; ai	aj	ak	al	funct	q0	cq
   22    21    24    23     2
   31    30    33    32     2

[ position_restraints ]
   11     1     0.0             0.0            1000.0

[ dihedral_restraints ]
   16    27    19    21     1   -120.0      2.5       1000.0
   51    54    56    58     1      0.0      0.0       1000.0
;;
;; Generated by CHARMM-GUI FF-Converter
;;
;; Correspondance:
;; jul316@lehigh.edu or wonpil@lehigh.edu
;;
;; GROMACS topology file for POPS
;;


[ moleculetype ]
; name	nrexcl
POPS	     3

[ atoms ]
; nr	type	resnr	residu	atom	cgnr	charge	mass
     1       NH3L      3     POPS      N      1    -0.300000    14.0070   ; qtot -0.300
     2        HCL      3     POPS    HN1      2     0.330000     1.0080   ; qtot  0.030
     3        HCL      3     POPS    HN2      3     0.330000     1.0080   ; qtot  0.360
     4        HCL      3     POPS    HN3      4     0.330000     1.0080   ; qtot  0.690
     5       CTL1      3     POPS    C12      5     0.210000    12.0110   ; qtot  0.900
     6        HBL      3     POPS   H12A      6     0.100000     1.0080   ; qtot  1.000
     7        CCL      3     POPS    C13      7     0.340000    12.0110   ; qtot  1.340
     8        OCL      3     POPS   O13A      8    -0.670000    15.9994   ; qtot  0.670
     9        OCL      3     POPS   O13B      9    -0.670000    15.9994   ; qtot  0.000
    10       CTL2      3     POPS    C11     10    -0.080000    12.0110   ; qtot -0.080
    11       HAL2      3     POPS   H11A     11     0.090000     1.0080   ; qtot  0.010
    12       HAL2      3     POPS   H11B     12     0.090000     1.0080   ; qtot  0.100
    13         PL      3     POPS      P     13     1.500000    30.9740   ; qtot  1.600
    14        O2L      3     POPS    O13     14    -0.780000    15.9994   ; qtot  0.820
    15        O2L      3     POPS    O14     15    -0.780000    15.9994   ; qtot  0.040
    16       OSLP      3     POPS    O12     16    -0.570000    15.9994   ; qtot -0.530
    17       OSLP      3     POPS    O11     17    -0.570000    15.9994   ; qtot -1.100
    18       CTL2      3     POPS     C1     18    -0.080000    12.0110   ; qtot -1.180
    19       HAL2      3     POPS     HA     19     0.090000     1.0080   ; qtot -1.090
    20       HAL2      3     POPS     HB     20     0.090000     1.0080   ; qtot -1.000
    21       CTL1      3     POPS     C2     21     0.170000    12.0110   ; qtot -0.830
    22       HAL1      3     POPS     HS     22     0.090000     1.0080   ; qtot -0.740
    23        OSL      3     POPS    O21     23    -0.490000    15.9994   ; qtot -1.230
    24         CL      3     POPS    C21     24     0.900000    12.0110   ; qtot -0.330
    25        OBL      3     POPS    O22     25    -0.630000    15.9994   ; qtot -0.960
    26       CTL2      3     POPS    C22     26    -0.220000    12.0110   ; qtot -1.180
    27       HAL2      3     POPS    H2R     27     0.090000     1.0080   ; qtot -1.090
    28       HAL2      3     POPS    H2S     28     0.090000     1.0080   ; qtot -1.000
    29       CTL2      3     POPS     C3     29     0.080000    12.0110   ; qtot -0.920
    30       HAL2      3     POPS     HX     30     0.090000     1.0080   ; qtot -0.830
    31       HAL2      3     POPS     HY     31     0.090000     1.0080   ; qtot -0.740
    32        OSL      3     POPS    O31     32    -0.490000    15.9994   ; qtot -1.230
    33         CL      3     POPS    C31     33     0.900000    12.0110   ; qtot -0.330
    34        OBL      3     POPS    O32     34    -0.630000    15.9994   ; qtot -0.960
    35       CTL2      3     POPS    C32     35    -0.220000    12.0110   ; qtot -1.180
    36       HAL2      3     POPS    H2X     36     0.090000     1.0080   ; qtot -1.090
    37       HAL2      3     POPS    H2Y     37     0.090000     1.0080   ; qtot -1.000
    38       CTL2      3     POPS    C23     38    -0.180000    12.0110   ; qtot -1.180
    39       HAL2      3     POPS    H3R     39     0.090000     1.0080   ; qtot -1.090
    40       HAL2      3     POPS    H3S     40     0.090000     1.0080   ; qtot -1.000
    41       CTL2      3     POPS    C24     41    -0.180000    12.0110   ; qtot -1.180
    42       HAL2      3     POPS    H4R     42     0.090000     1.0080   ; qtot -1.090
    43       HAL2      3     POPS    H4S     43     0.090000     1.0080   ; qtot -1.000
    44       CTL2      3     POPS    C25     44    -0.180000    12.0110   ; qtot -1.180
    45       HAL2      3     POPS    H5R     45     0.090000     1.0080   ; qtot -1.090
    46       HAL2      3     POPS    H5S     46     0.090000     1.0080   ; qtot -1.000
    47       CTL2      3     POPS    C26     47    -0.180000    12.0110   ; qtot -1.180
    48       HAL2      3     POPS    H6R     48     0.090000     1.0080   ; qtot -1.090
    49       HAL2      3     POPS    H6S     49     0.090000     1.0080   ; qtot -1.000
    50       CTL2      3     POPS    C27     50    -0.180000    12.0110   ; qtot -1.180
    51       HAL2      3     POPS    H7R     51     0.090000     1.0080   ; qtot -1.090
    52       HAL2      3     POPS    H7S     52     0.090000     1.0080   ; qtot -1.000
    53       CTL2      3     POPS    C28     53    -0.180000    12.0110   ; qtot -1.180
    54       HAL2      3     POPS    H8R     54     0.090000     1.0080   ; qtot -1.090
    55       HAL2      3     POPS    H8S     55     0.090000     1.0080   ; qtot -1.000
    56       CEL1      3     POPS    C29     56    -0.150000    12.0110   ; qtot -1.150
    57       HEL1      3     POPS    H91     57     0.150000     1.0080   ; qtot -1.000
    58       CEL1      3     POPS   C210     58    -0.150000    12.0110   ; qtot -1.150
    59       HEL1      3     POPS   H101     59     0.150000     1.0080   ; qtot -1.000
    60       CTL2      3     POPS   C211     60    -0.180000    12.0110   ; qtot -1.180
    61       HAL2      3     POPS   H11R     61     0.090000     1.0080   ; qtot -1.090
    62       HAL2      3     POPS   H11S     62     0.090000     1.0080   ; qtot -1.000
    63       CTL2      3     POPS   C212     63    -0.180000    12.0110   ; qtot -1.180
    64       HAL2      3     POPS   H12R     64     0.090000     1.0080   ; qtot -1.090
    65       HAL2      3     POPS   H12S     65     0.090000     1.0080   ; qtot -1.000
    66       CTL2      3     POPS   C213     66    -0.180000    12.0110   ; qtot -1.180
    67       HAL2      3     POPS   H13R     67     0.090000     1.0080   ; qtot -1.090
    68       HAL2      3     POPS   H13S     68     0.090000     1.0080   ; qtot -1.000
    69       CTL2      3     POPS   C214     69    -0.180000    12.0110   ; qtot -1.180
    70       HAL2      3     POPS   H14R     70     0.090000     1.0080   ; qtot -1.090
    71       HAL2      3     POPS   H14S     71     0.090000     1.0080   ; qtot -1.000
    72       CTL2      3     POPS   C215     72    -0.180000    12.0110   ; qtot -1.180
    73       HAL2      3     POPS   H15R     73     0.090000     1.0080   ; qtot -1.090
    74       HAL2      3     POPS   H15S     74     0.090000     1.0080   ; qtot -1.000
    75       CTL2      3     POPS   C216     75    -0.180000    12.0110   ; qtot -1.180
    76       HAL2      3     POPS   H16R     76     0.090000     1.0080   ; qtot -1.090
    77       HAL2      3     POPS   H16S     77     0.090000     1.0080   ; qtot -1.000
    78       CTL2      3     POPS   C217     78    -0.180000    12.0110   ; qtot -1.180
    79       HAL2      3     POPS   H17R     79     0.090000     1.0080   ; qtot -1.090
    80       HAL2      3     POPS   H17S     80     0.090000     1.0080   ; qtot -1.000
    81       CTL3      3     POPS   C218     81    -0.270000    12.0110   ; qtot -1.270
    82       HAL3      3     POPS   H18R     82     0.090000     1.0080   ; qtot -1.180
    83       HAL3      3     POPS   H18S     83     0.090000     1.0080   ; qtot -1.090
    84       HAL3      3     POPS   H18T     84     0.090000     1.0080   ; qtot -1.000
    85       CTL2      3     POPS    C33     85    -0.180000    12.0110   ; qtot -1.180
    86       HAL2      3     POPS    H3X     86     0.090000     1.0080   ; qtot -1.090
    87       HAL2      3     POPS    H3Y     87     0.090000     1.0080   ; qtot -1.000
    88       CTL2      3     POPS    C34     88    -0.180000    12.0110   ; qtot -1.180
    89       HAL2      3     POPS    H4X     89     0.090000     1.0080   ; qtot -1.090
    90       HAL2      3     POPS    H4Y     90     0.090000     1.0080   ; qtot -1.000
    91       CTL2      3     POPS    C35     91    -0.180000    12.0110   ; qtot -1.180
    92       HAL2      3     POPS    H5X     92     0.090000     1.0080   ; qtot -1.090
    93       HAL2      3     POPS    H5Y     93     0.090000     1.0080   ; qtot -1.000
    94       CTL2      3     POPS    C36     94    -0.180000    12.0110   ; qtot -1.180
    95       HAL2      3     POPS    H6X     95     0.090000     1.0080   ; qtot -1.090
    96       HAL2      3     POPS    H6Y     96     0.090000     1.0080   ; qtot -1.000
    97       CTL2      3     POPS    C37     97    -0.180000    12.0110   ; qtot -1.180
    98       HAL2      3     POPS    H7X     98     0.090000     1.0080   ; qtot -1.090
    99       HAL2      3     POPS    H7Y     99     0.090000     1.0080   ; qtot -1.000
   100       CTL2      3     POPS    C38    100    -0.180000    12.0110   ; qtot -1.180
   101       HAL2      3     POPS    H8X    101     0.090000     1.0080   ; qtot -1.090
   102       HAL2      3     POPS    H8Y    102     0.090000     1.0080   ; qtot -1.000
   103       CTL2      3     POPS    C39    103    -0.180000    12.0110   ; qtot -1.180
   104       HAL2      3     POPS    H9X    104     0.090000     1.0080   ; qtot -1.090
   105       HAL2      3     POPS    H9Y    105     0.090000     1.0080   ; qtot -1.000
   106       CTL2      3     POPS   C310    106    -0.180000    12.0110   ; qtot -1.180
   107       HAL2      3     POPS   H10X    107     0.090000     1.0080   ; qtot -1.090
   108       HAL2      3     POPS   H10Y    108     0.090000     1.0080   ; qtot -1.000
   109       CTL2      3     POPS   C311    109    -0.180000    12.0110   ; qtot -1.180
   110       HAL2      3     POPS   H11X    110     0.090000     1.0080   ; qtot -1.090
   111       HAL2      3     POPS   H11Y    111     0.090000     1.0080   ; qtot -1.000
   112       CTL2      3     POPS   C312    112    -0.180000    12.0110   ; qtot -1.180
   113       HAL2      3     POPS   H12X    113     0.090000     1.0080   ; qtot -1.090
   114       HAL2      3     POPS   H12Y    114     0.090000     1.0080   ; qtot -1.000
   115       CTL2      3     POPS   C313    115    -0.180000    12.0110   ; qtot -1.180
   116       HAL2      3     POPS   H13X    116     0.090000     1.0080   ; qtot -1.090
   117       HAL2      3     POPS   H13Y    117     0.090000     1.0080   ; qtot -1.000
   118       CTL2      3     POPS   C314    118    -0.180000    12.0110   ; qtot -1.180
   119       HAL2      3     POPS   H14X    119     0.090000     1.0080   ; qtot -1.090
   120       HAL2      3     POPS   H14Y    120     0.090000     1.0080   ; qtot -1.000
   121       CTL2      3     POPS   C315    121    -0.180000    12.0110   ; qtot -1.180
   122       HAL2      3     POPS   H15X    122     0.090000     1.0080   ; qtot -1.090
   123       HAL2      3     POPS   H15Y    123     0.090000     1.0080   ; qtot -1.000
   124       CTL3      3     POPS   C316    124    -0.270000    12.0110   ; qtot -1.270
   125       HAL3      3     POPS   H16X    125     0.090000     1.0080   ; qtot -1.180
   126       HAL3      3     POPS   H16Y    126     0.090000     1.0080   ; qtot -1.090
   127       HAL3      3     POPS   H16Z    127     0.090000     1.0080   ; qtot -1.000

[ bonds ]
; ai	aj	funct	b0	Kb
    1     2     1
    1     3     1
    1     4     1
    1     5     1
    5     6     1
    7     5     1
    5    10     1
    7     8     1
    9     7     1
   10    11     1
   10    12     1
   10    16     1
   13    14     1
   13    15     1
   16    13     1
   13    17     1
   18    17     1
   18    19     1
   18    20     1
   18    21     1
   21    22     1
   21    23     1
   21    29     1
   23    24     1
   24    25     1
   24    26     1
   26    27     1
   26    28     1
   26    38     1
   29    30     1
   29    31     1
   29    32     1
   32    33     1
   33    34     1
   33    35     1
   35    36     1
   35    37     1
   35    85     1
   38    39     1
   38    40     1
   38    41     1
   41    42     1
   41    43     1
   41    44     1
   44    45     1
   44    46     1
   44    47     1
   47    48     1
   47    49     1
   47    50     1
   50    51     1
   50    52     1
   50    53     1
   53    54     1
   53    55     1
   53    56     1
   56    57     1
   56    58     1
   58    59     1
   58    60     1
   60    61     1
   60    62     1
   60    63     1
   63    64     1
   63    65     1
   63    66     1
   66    67     1
   66    68     1
   66    69     1
   69    70     1
   69    71     1
   69    72     1
   72    73     1
   72    74     1
   72    75     1
   75    76     1
   75    77     1
   75    78     1
   78    79     1
   78    80     1
   78    81     1
   81    82     1
   81    83     1
   81    84     1
   85    86     1
   85    87     1
   85    88     1
   88    89     1
   88    90     1
   88    91     1
   91    92     1
   91    93     1
   91    94     1
   94    95     1
   94    96     1
   94    97     1
   97    98     1
   97    99     1
   97   100     1
  100   101     1
  100   102     1
  100   103     1
  103   104     1
  103   105     1
  103   106     1
  106   107     1
  106   108     1
  106   109     1
  109   110     1
  109   111     1
  109   112     1
  112   113     1
  112   114     1
  112   115     1
  115   116     1
  115   117     1
  115   118     1
  118   119     1
  118   120     1
  118   121     1
  121   122     1
  121   123     1
  121   124     1
  124   125     1
  124   126     1
  124   127     1

[ pairs ]
; ai	aj	funct	c6	c12 or
; ai	aj	funct	fudgeQQ	q1	q2	c6	c12
    1     8     1
    1     9     1
    1    11     1
    1    12     1
    1    16     1
    2     6     1
    2     7     1
    2    10     1
    3     6     1
    3     7     1
    3    10     1
    4     6     1
    4     7     1
    4    10     1
    5    13     1
    6     8     1
    6     9     1
    6    11     1
    6    12     1
    6    16     1
    7    11     1
    7    12     1
    7    16     1
    8    10     1
    9    10     1
   10    14     1
   10    15     1
   10    17     1
   11    13     1
   12    13     1
   13    19     1
   13    20     1
   13    21     1
   14    18     1
   15    18     1
   16    18     1
   17    22     1
   17    23     1
   17    29     1
   18    24     1
   18    30     1
   18    31     1
   18    32     1
   19    22     1
   19    23     1
   19    29     1
   20    22     1
   20    23     1
   20    29     1
   21    25     1
   21    26     1
   21    33     1
   22    24     1
   22    30     1
   22    31     1
   22    32     1
   23    27     1
   23    28     1
   23    30     1
   23    31     1
   23    32     1
   23    38     1
   24    29     1
   24    39     1
   24    40     1
   24    41     1
   25    27     1
   25    28     1
   25    38     1
   26    42     1
   26    43     1
   26    44     1
   27    39     1
   27    40     1
   27    41     1
   28    39     1
   28    40     1
   28    41     1
   29    34     1
   29    35     1
   30    33     1
   31    33     1
   32    36     1
   32    37     1
   32    85     1
   33    86     1
   33    87     1
   33    88     1
   34    36     1
   34    37     1
   34    85     1
   35    89     1
   35    90     1
   35    91     1
   36    86     1
   36    87     1
   36    88     1
   37    86     1
   37    87     1
   37    88     1
   38    45     1
   38    46     1
   38    47     1
   39    42     1
   39    43     1
   39    44     1
   40    42     1
   40    43     1
   40    44     1
   41    48     1
   41    49     1
   41    50     1
   42    45     1
   42    46     1
   42    47     1
   43    45     1
   43    46     1
   43    47     1
   44    51     1
   44    52     1
   44    53     1
   45    48     1
   45    49     1
   45    50     1
   46    48     1
   46    49     1
   46    50     1
   47    54     1
   47    55     1
   47    56     1
   48    51     1
   48    52     1
   48    53     1
   49    51     1
   49    52     1
   49    53     1
   50    57     1
   50    58     1
   51    54     1
   51    55     1
   51    56     1
   52    54     1
   52    55     1
   52    56     1
   53    59     1
   53    60     1
   54    57     1
   54    58     1
   55    57     1
   55    58     1
   56    61     1
   56    62     1
   56    63     1
   57    59     1
   57    60     1
   58    64     1
   58    65     1
   58    66     1
   59    61     1
   59    62     1
   59    63     1
   60    67     1
   60    68     1
   60    69     1
   61    64     1
   61    65     1
   61    66     1
   62    64     1
   62    65     1
   62    66     1
   63    70     1
   63    71     1
   63    72     1
   64    67     1
   64    68     1
   64    69     1
   65    67     1
   65    68     1
   65    69     1
   66    73     1
   66    74     1
   66    75     1
   67    70     1
   67    71     1
   67    72     1
   68    70     1
   68    71     1
   68    72     1
   69    76     1
   69    77     1
   69    78     1
   70    73     1
   70    74     1
   70    75     1
   71    73     1
   71    74     1
   71    75     1
   72    79     1
   72    80     1
   72    81     1
   73    76     1
   73    77     1
   73    78     1
   74    76     1
   74    77     1
   74    78     1
   75    82     1
   75    83     1
   75    84     1
   76    79     1
   76    80     1
   76    81     1
   77    79     1
   77    80     1
   77    81     1
   79    82     1
   79    83     1
   79    84     1
   80    82     1
   80    83     1
   80    84     1
   85    92     1
   85    93     1
   85    94     1
   86    89     1
   86    90     1
   86    91     1
   87    89     1
   87    90     1
   87    91     1
   88    95     1
   88    96     1
   88    97     1
   89    92     1
   89    93     1
   89    94     1
   90    92     1
   90    93     1
   90    94     1
   91    98     1
   91    99     1
   91   100     1
   92    95     1
   92    96     1
   92    97     1
   93    95     1
   93    96     1
   93    97     1
   94   101     1
   94   102     1
   94   103     1
   95    98     1
   95    99     1
   95   100     1
   96    98     1
   96    99     1
   96   100     1
   97   104     1
   97   105     1
   97   106     1
   98   101     1
   98   102     1
   98   103     1
   99   101     1
   99   102     1
   99   103     1
  100   107     1
  100   108     1
  100   109     1
  101   104     1
  101   105     1
  101   106     1
  102   104     1
  102   105     1
  102   106     1
  103   110     1
  103   111     1
  103   112     1
  104   107     1
  104   108     1
  104   109     1
  105   107     1
  105   108     1
  105   109     1
  106   113     1
  106   114     1
  106   115     1
  107   110     1
  107   111     1
  107   112     1
  108   110     1
  108   111     1
  108   112     1
  109   116     1
  109   117     1
  109   118     1
  110   113     1
  110   114     1
  110   115     1
  111   113     1
  111   114     1
  111   115     1
  112   119     1
  112   120     1
  112   121     1
  113   116     1
  113   117     1
  113   118     1
  114   116     1
  114   117     1
  114   118     1
  115   122     1
  115   123     1
  115   124     1
  116   119     1
  116   120     1
  116   121     1
  117   119     1
  117   120     1
  117   121     1
  118   125     1
  118   126     1
  118   127     1
  119   122     1
  119   123     1
  119   124     1
  120   122     1
  120   123     1
  120   124     1
  122   125     1
  122   126     1
  122   127     1
  123   125     1
  123   126     1
  123   127     1

[ angles ] 
; ai	aj	ak	funct	th0	cth	S0	Kub
    2     1     3     5
    2     1     4     5
    2     1     5     5
    3     1     4     5
    3     1     5     5
    4     1     5     5
    1     5     6     5
    1     5     7     5
    1     5    10     5
    6     5     7     5
    6     5    10     5
    7     5    10     5
    5     7     8     5
    5     7     9     5
    8     7     9     5
    5    10    11     5
    5    10    12     5
    5    10    16     5
   11    10    12     5
   11    10    16     5
   12    10    16     5
   14    13    15     5
   14    13    16     5
   14    13    17     5
   15    13    16     5
   15    13    17     5
   16    13    17     5
   10    16    13     5
   13    17    18     5
   17    18    19     5
   17    18    20     5
   17    18    21     5
   19    18    20     5
   19    18    21     5
   20    18    21     5
   18    21    22     5
   18    21    23     5
   18    21    29     5
   22    21    23     5
   22    21    29     5
   23    21    29     5
   21    23    24     5
   23    24    25     5
   23    24    26     5
   25    24    26     5
   24    26    27     5
   24    26    28     5
   24    26    38     5
   27    26    28     5
   27    26    38     5
   28    26    38     5
   21    29    30     5
   21    29    31     5
   21    29    32     5
   30    29    31     5
   30    29    32     5
   31    29    32     5
   29    32    33     5
   32    33    34     5
   32    33    35     5
   34    33    35     5
   33    35    36     5
   33    35    37     5
   33    35    85     5
   36    35    37     5
   36    35    85     5
   37    35    85     5
   26    38    39     5
   26    38    40     5
   26    38    41     5
   39    38    40     5
   39    38    41     5
   40    38    41     5
   38    41    42     5
   38    41    43     5
   38    41    44     5
   42    41    43     5
   42    41    44     5
   43    41    44     5
   41    44    45     5
   41    44    46     5
   41    44    47     5
   45    44    46     5
   45    44    47     5
   46    44    47     5
   44    47    48     5
   44    47    49     5
   44    47    50     5
   48    47    49     5
   48    47    50     5
   49    47    50     5
   47    50    51     5
   47    50    52     5
   47    50    53     5
   51    50    52     5
   51    50    53     5
   52    50    53     5
   50    53    54     5
   50    53    55     5
   50    53    56     5
   54    53    55     5
   54    53    56     5
   55    53    56     5
   53    56    57     5
   53    56    58     5
   57    56    58     5
   56    58    59     5
   56    58    60     5
   59    58    60     5
   58    60    61     5
   58    60    62     5
   58    60    63     5
   61    60    62     5
   61    60    63     5
   62    60    63     5
   60    63    64     5
   60    63    65     5
   60    63    66     5
   64    63    65     5
   64    63    66     5
   65    63    66     5
   63    66    67     5
   63    66    68     5
   63    66    69     5
   67    66    68     5
   67    66    69     5
   68    66    69     5
   66    69    70     5
   66    69    71     5
   66    69    72     5
   70    69    71     5
   70    69    72     5
   71    69    72     5
   69    72    73     5
   69    72    74     5
   69    72    75     5
   73    72    74     5
   73    72    75     5
   74    72    75     5
   72    75    76     5
   72    75    77     5
   72    75    78     5
   76    75    77     5
   76    75    78     5
   77    75    78     5
   75    78    79     5
   75    78    80     5
   75    78    81     5
   79    78    80     5
   79    78    81     5
   80    78    81     5
   78    81    82     5
   78    81    83     5
   78    81    84     5
   82    81    83     5
   82    81    84     5
   83    81    84     5
   35    85    86     5
   35    85    87     5
   35    85    88     5
   86    85    87     5
   86    85    88     5
   87    85    88     5
   85    88    89     5
   85    88    90     5
   85    88    91     5
   89    88    90     5
   89    88    91     5
   90    88    91     5
   88    91    92     5
   88    91    93     5
   88    91    94     5
   92    91    93     5
   92    91    94     5
   93    91    94     5
   91    94    95     5
   91    94    96     5
   91    94    97     5
   95    94    96     5
   95    94    97     5
   96    94    97     5
   94    97    98     5
   94    97    99     5
   94    97   100     5
   98    97    99     5
   98    97   100     5
   99    97   100     5
   97   100   101     5
   97   100   102     5
   97   100   103     5
  101   100   102     5
  101   100   103     5
  102   100   103     5
  100   103   104     5
  100   103   105     5
  100   103   106     5
  104   103   105     5
  104   103   106     5
  105   103   106     5
  103   106   107     5
  103   106   108     5
  103   106   109     5
  107   106   108     5
  107   106   109     5
  108   106   109     5
  106   109   110     5
  106   109   111     5
  106   109   112     5
  110   109   111     5
  110   109   112     5
  111   109   112     5
  109   112   113     5
  109   112   114     5
  109   112   115     5
  113   112   114     5
  113   112   115     5
  114   112   115     5
  112   115   116     5
  112   115   117     5
  112   115   118     5
  116   115   117     5
  116   115   118     5
  117   115   118     5
  115   118   119     5
  115   118   120     5
  115   118   121     5
  119   118   120     5
  119   118   121     5
  120   118   121     5
  118   121   122     5
  118   121   123     5
  118   121   124     5
  122   121   123     5
  122   121   124     5
  123   121   124     5
  121   124   125     5
  121   124   126     5
  121   124   127     5
  125   124   126     5
  125   124   127     5
  126   124   127     5

[ dihedrals ]
; ai	aj	ak	al	funct	phi0	cp	mult
    2     1     5     6     9
    2     1     5     7     9
    2     1     5    10     9
    3     1     5     6     9
    3     1     5     7     9
    3     1     5    10     9
    4     1     5     6     9
    4     1     5     7     9
    4     1     5    10     9
    1     5     7     8     9
    1     5     7     9     9
    6     5     7     8     9
    6     5     7     9     9
    1     5    10    11     9
    1     5    10    12     9
    1     5    10    16     9
    6     5    10    11     9
    6     5    10    12     9
    6     5    10    16     9
    7     5    10    11     9
    7     5    10    12     9
    7     5    10    16     9
    8     7     5    10     9
    9     7     5    10     9
    5    10    16    13     9
   11    10    16    13     9
   12    10    16    13     9
   14    13    17    18     9
   15    13    17    18     9
   16    13    17    18     9
   10    16    13    14     9
   10    16    13    15     9
   10    16    13    17     9
   13    17    18    19     9
   13    17    18    20     9
   13    17    18    21     9
   17    18    21    22     9
   17    18    21    23     9
   17    18    21    29     9
   19    18    21    22     9
   19    18    21    23     9
   19    18    21    29     9
   20    18    21    22     9
   20    18    21    23     9
   20    18    21    29     9
   18    21    23    24     9
   22    21    23    24     9
   18    21    29    30     9
   18    21    29    31     9
   18    21    29    32     9
   22    21    29    30     9
   22    21    29    31     9
   22    21    29    32     9
   23    21    29    30     9
   23    21    29    31     9
   23    21    29    32     9
   24    23    21    29     9
   21    23    24    25     9
   21    23    24    26     9
   23    24    26    27     9
   23    24    26    28     9
   23    24    26    38     9
   25    24    26    27     9
   25    24    26    28     9
   25    24    26    38     9
   24    26    38    39     9
   24    26    38    40     9
   24    26    38    41     9
   27    26    38    39     9
   27    26    38    40     9
   27    26    38    41     9
   28    26    38    39     9
   28    26    38    40     9
   28    26    38    41     9
   21    29    32    33     9
   30    29    32    33     9
   31    29    32    33     9
   29    32    33    34     9
   29    32    33    35     9
   32    33    35    36     9
   32    33    35    37     9
   32    33    35    85     9
   34    33    35    36     9
   34    33    35    37     9
   34    33    35    85     9
   33    35    85    86     9
   33    35    85    87     9
   33    35    85    88     9
   36    35    85    86     9
   36    35    85    87     9
   36    35    85    88     9
   37    35    85    86     9
   37    35    85    87     9
   37    35    85    88     9
   26    38    41    42     9
   26    38    41    43     9
   26    38    41    44     9
   39    38    41    42     9
   39    38    41    43     9
   39    38    41    44     9
   40    38    41    42     9
   40    38    41    43     9
   40    38    41    44     9
   38    41    44    45     9
   38    41    44    46     9
   38    41    44    47     9
   42    41    44    45     9
   42    41    44    46     9
   42    41    44    47     9
   43    41    44    45     9
   43    41    44    46     9
   43    41    44    47     9
   41    44    47    48     9
   41    44    47    49     9
   41    44    47    50     9
   45    44    47    48     9
   45    44    47    49     9
   45    44    47    50     9
   46    44    47    48     9
   46    44    47    49     9
   46    44    47    50     9
   44    47    50    51     9
   44    47    50    52     9
   44    47    50    53     9
   48    47    50    51     9
   48    47    50    52     9
   48    47    50    53     9
   49    47    50    51     9
   49    47    50    52     9
   49    47    50    53     9
   47    50    53    54     9
   47    50    53    55     9
   47    50    53    56     9
   51    50    53    54     9
   51    50    53    55     9
   51    50    53    56     9
   52    50    53    54     9
   52    50    53    55     9
   52    50    53    56     9
   50    53    56    57     9
   50    53    56    58     9
   54    53    56    57     9
   54    53    56    58     9
   55    53    56    57     9
   55    53    56    58     9
   53    56    58    59     9
   53    56    58    60     9
   57    56    58    59     9
   57    56    58    60     9
   56    58    60    61     9
   56    58    60    62     9
   56    58    60    63     9
   59    58    60    61     9
   59    58    60    62     9
   59    58    60    63     9
   58    60    63    64     9
   58    60    63    65     9
   58    60    63    66     9
   61    60    63    64     9
   61    60    63    65     9
   61    60    63    66     9
   62    60    63    64     9
   62    60    63    65     9
   62    60    63    66     9
   60    63    66    67     9
   60    63    66    68     9
   60    63    66    69     9
   64    63    66    67     9
   64    63    66    68     9
   64    63    66    69     9
   65    63    66    67     9
   65    63    66    68     9
   65    63    66    69     9
   63    66    69    70     9
   63    66    69    71     9
   63    66    69    72     9
   67    66    69    70     9
   67    66    69    71     9
   67    66    69    72     9
   68    66    69    70     9
   68    66    69    71     9
   68    66    69    72     9
   66    69    72    73     9
   66    69    72    74     9
   66    69    72    75     9
   70    69    72    73     9
   70    69    72    74     9
   70    69    72    75     9
   71    69    72    73     9
   71    69    72    74     9
   71    69    72    75     9
   69    72    75    76     9
   69    72    75    77     9
   69    72    75    78     9
   73    72    75    76     9
   73    72    75    77     9
   73    72    75    78     9
   74    72    75    76     9
   74    72    75    77     9
   74    72    75    78     9
   72    75    78    79     9
   72    75    78    80     9
   72    75    78    81     9
   76    75    78    79     9
   76    75    78    80     9
   76    75    78    81     9
   77    75    78    79     9
   77    75    78    80     9
   77    75    78    81     9
   75    78    81    82     9
   75    78    81    83     9
   75    78    81    84     9
   79    78    81    82     9
   79    78    81    83     9
   79    78    81    84     9
   80    78    81    82     9
   80    78    81    83     9
   80    78    81    84     9
   35    85    88    89     9
   35    85    88    90     9
   35    85    88    91     9
   86    85    88    89     9
   86    85    88    90     9
   86    85    88    91     9
   87    85    88    89     9
   87    85    88    90     9
   87    85    88    91     9
   85    88    91    92     9
   85    88    91    93     9
   85    88    91    94     9
   89    88    91    92     9
   89    88    91    93     9
   89    88    91    94     9
   90    88    91    92     9
   90    88    91    93     9
   90    88    91    94     9
   88    91    94    95     9
   88    91    94    96     9
   88    91    94    97     9
   92    91    94    95     9
   92    91    94    96     9
   92    91    94    97     9
   93    91    94    95     9
   93    91    94    96     9
   93    91    94    97     9
   91    94    97    98     9
   91    94    97    99     9
   91    94    97   100     9
   95    94    97    98     9
   95    94    97    99     9
   95    94    97   100     9
   96    94    97    98     9
   96    94    97    99     9
   96    94    97   100     9
   94    97   100   101     9
   94    97   100   102     9
   94    97   100   103     9
   98    97   100   101     9
   98    97   100   102     9
   98    97   100   103     9
   99    97   100   101     9
   99    97   100   102     9
   99    97   100   103     9
   97   100   103   104     9
   97   100   103   105     9
   97   100   103   106     9
  101   100   103   104     9
  101   100   103   105     9
  101   100   103   106     9
  102   100   103   104     9
  102   100   103   105     9
  102   100   103   106     9
  100   103   106   107     9
  100   103   106   108     9
  100   103   106   109     9
  104   103   106   107     9
  104   103   106   108     9
  104   103   106   109     9
  105   103   106   107     9
  105   103   106   108     9
  105   103   106   109     9
  103   106   109   110     9
  103   106   109   111     9
  103   106   109   112     9
  107   106   109   110     9
  107   106   109   111     9
  107   106   109   112     9
  108   106   109   110     9
  108   106   109   111     9
  108   106   109   112     9
  106   109   112   113     9
  106   109   112   114     9
  106   109   112   115     9
  110   109   112   113     9
  110   109   112   114     9
  110   109   112   115     9
  111   109   112   113     9
  111   109   112   114     9
  111   109   112   115     9
  109   112   115   116     9
  109   112   115   117     9
  109   112   115   118     9
  113   112   115   116     9
  113   112   115   117     9
  113   112   115   118     9
  114   112   115   116     9
  114   112   115   117     9
  114   112   115   118     9
  112   115   118   119     9
  112   115   118   120     9
  112   115   118   121     9
  116   115   118   119     9
  116   115   118   120     9
  116   115   118   121     9
  117   115   118   119     9
  117   115   118   120     9
  117   115   118   121     9
  115   118   121   122     9
  115   118   121   123     9
  115   118   121   124     9
  119   118   121   122     9
  119   118   121   123     9
  119   118   121   124     9
  120   118   121   122     9
  120   118   121   123     9
  120   118   121   124     9
  118   121   124   125     9
  118   121   124   126     9
  118   121   124   127     9
  122   121   124   125     9
  122   121   124   126     9
  122   121   124   127     9
  123   121   124   125     9
  123   121   124   126     9
  123   121   124   127     9

[ dihedrals ]
; ai	aj	ak	al	funct	q0	cq
    7     5     9     8     2
   24    23    26    25     2
   33    32    35    34     2

[ position_restraints ]
   13     1     0.0             0.0            1000.0

[ dihedral_restraints ]
    1     7     5    10     1    120.0      2.5       1000.0
   18    29    21    23     1   -120.0      2.5       1000.0
   53    56    58    60     1      0.0      0.0       1000.0
;;
;; Generated by CHARMM-GUI FF-Converter
;;
;; Correspondance:
;; jul316@lehigh.edu or wonpil@lehigh.edu
;;
;; GROMACS topology file for POPC
;;


[ moleculetype ]
; name	nrexcl
POPC	     3

[ atoms ]
; nr	type	resnr	residu	atom	cgnr	charge	mass
     1        NTL      5     POPC      N      1    -0.600000    14.0070   ; qtot -0.600
     2       CTL2      5     POPC    C12      2    -0.100000    12.0110   ; qtot -0.700
     3         HL      5     POPC   H12A      3     0.250000     1.0080   ; qtot -0.450
     4         HL      5     POPC   H12B      4     0.250000     1.0080   ; qtot -0.200
     5       CTL5      5     POPC    C13      5    -0.350000    12.0110   ; qtot -0.550
     6         HL      5     POPC   H13A      6     0.250000     1.0080   ; qtot -0.300
     7         HL      5     POPC   H13B      7     0.250000     1.0080   ; qtot -0.050
     8         HL      5     POPC   H13C      8     0.250000     1.0080   ; qtot  0.200
     9       CTL5      5     POPC    C14      9    -0.350000    12.0110   ; qtot -0.150
    10         HL      5     POPC   H14A     10     0.250000     1.0080   ; qtot  0.100
    11         HL      5     POPC   H14B     11     0.250000     1.0080   ; qtot  0.350
    12         HL      5     POPC   H14C     12     0.250000     1.0080   ; qtot  0.600
    13       CTL5      5     POPC    C15     13    -0.350000    12.0110   ; qtot  0.250
    14         HL      5     POPC   H15A     14     0.250000     1.0080   ; qtot  0.500
    15         HL      5     POPC   H15B     15     0.250000     1.0080   ; qtot  0.750
    16         HL      5     POPC   H15C     16     0.250000     1.0080   ; qtot  1.000
    17       CTL2      5     POPC    C11     17    -0.080000    12.0110   ; qtot  0.920
    18       HAL2      5     POPC   H11A     18     0.090000     1.0080   ; qtot  1.010
    19       HAL2      5     POPC   H11B     19     0.090000     1.0080   ; qtot  1.100
    20         PL      5     POPC      P     20     1.500000    30.9740   ; qtot  2.600
    21        O2L      5     POPC    O13     21    -0.780000    15.9994   ; qtot  1.820
    22        O2L      5     POPC    O14     22    -0.780000    15.9994   ; qtot  1.040
    23       OSLP      5     POPC    O12     23    -0.570000    15.9994   ; qtot  0.470
    24       OSLP      5     POPC    O11     24    -0.570000    15.9994   ; qtot -0.100
    25       CTL2      5     POPC     C1     25    -0.080000    12.0110   ; qtot -0.180
    26       HAL2      5     POPC     HA     26     0.090000     1.0080   ; qtot -0.090
    27       HAL2      5     POPC     HB     27     0.090000     1.0080   ; qtot  0.000
    28       CTL1      5     POPC     C2     28     0.170000    12.0110   ; qtot  0.170
    29       HAL1      5     POPC     HS     29     0.090000     1.0080   ; qtot  0.260
    30        OSL      5     POPC    O21     30    -0.490000    15.9994   ; qtot -0.230
    31         CL      5     POPC    C21     31     0.900000    12.0110   ; qtot  0.670
    32        OBL      5     POPC    O22     32    -0.630000    15.9994   ; qtot  0.040
    33       CTL2      5     POPC    C22     33    -0.220000    12.0110   ; qtot -0.180
    34       HAL2      5     POPC    H2R     34     0.090000     1.0080   ; qtot -0.090
    35       HAL2      5     POPC    H2S     35     0.090000     1.0080   ; qtot  0.000
    36       CTL2      5     POPC     C3     36     0.080000    12.0110   ; qtot  0.080
    37       HAL2      5     POPC     HX     37     0.090000     1.0080   ; qtot  0.170
    38       HAL2      5     POPC     HY     38     0.090000     1.0080   ; qtot  0.260
    39        OSL      5     POPC    O31     39    -0.490000    15.9994   ; qtot -0.230
    40         CL      5     POPC    C31     40     0.900000    12.0110   ; qtot  0.670
    41        OBL      5     POPC    O32     41    -0.630000    15.9994   ; qtot  0.040
    42       CTL2      5     POPC    C32     42    -0.220000    12.0110   ; qtot -0.180
    43       HAL2      5     POPC    H2X     43     0.090000     1.0080   ; qtot -0.090
    44       HAL2      5     POPC    H2Y     44     0.090000     1.0080   ; qtot  0.000
    45       CTL2      5     POPC    C23     45    -0.180000    12.0110   ; qtot -0.180
    46       HAL2      5     POPC    H3R     46     0.090000     1.0080   ; qtot -0.090
    47       HAL2      5     POPC    H3S     47     0.090000     1.0080   ; qtot  0.000
    48       CTL2      5     POPC    C24     48    -0.180000    12.0110   ; qtot -0.180
    49       HAL2      5     POPC    H4R     49     0.090000     1.0080   ; qtot -0.090
    50       HAL2      5     POPC    H4S     50     0.090000     1.0080   ; qtot  0.000
    51       CTL2      5     POPC    C25     51    -0.180000    12.0110   ; qtot -0.180
    52       HAL2      5     POPC    H5R     52     0.090000     1.0080   ; qtot -0.090
    53       HAL2      5     POPC    H5S     53     0.090000     1.0080   ; qtot  0.000
    54       CTL2      5     POPC    C26     54    -0.180000    12.0110   ; qtot -0.180
    55       HAL2      5     POPC    H6R     55     0.090000     1.0080   ; qtot -0.090
    56       HAL2      5     POPC    H6S     56     0.090000     1.0080   ; qtot  0.000
    57       CTL2      5     POPC    C27     57    -0.180000    12.0110   ; qtot -0.180
    58       HAL2      5     POPC    H7R     58     0.090000     1.0080   ; qtot -0.090
    59       HAL2      5     POPC    H7S     59     0.090000     1.0080   ; qtot  0.000
    60       CTL2      5     POPC    C28     60    -0.180000    12.0110   ; qtot -0.180
    61       HAL2      5     POPC    H8R     61     0.090000     1.0080   ; qtot -0.090
    62       HAL2      5     POPC    H8S     62     0.090000     1.0080   ; qtot  0.000
    63       CEL1      5     POPC    C29     63    -0.150000    12.0110   ; qtot -0.150
    64       HEL1      5     POPC    H91     64     0.150000     1.0080   ; qtot  0.000
    65       CEL1      5     POPC   C210     65    -0.150000    12.0110   ; qtot -0.150
    66       HEL1      5     POPC   H101     66     0.150000     1.0080   ; qtot  0.000
    67       CTL2      5     POPC   C211     67    -0.180000    12.0110   ; qtot -0.180
    68       HAL2      5     POPC   H11R     68     0.090000     1.0080   ; qtot -0.090
    69       HAL2      5     POPC   H11S     69     0.090000     1.0080   ; qtot  0.000
    70       CTL2      5     POPC   C212     70    -0.180000    12.0110   ; qtot -0.180
    71       HAL2      5     POPC   H12R     71     0.090000     1.0080   ; qtot -0.090
    72       HAL2      5     POPC   H12S     72     0.090000     1.0080   ; qtot  0.000
    73       CTL2      5     POPC   C213     73    -0.180000    12.0110   ; qtot -0.180
    74       HAL2      5     POPC   H13R     74     0.090000     1.0080   ; qtot -0.090
    75       HAL2      5     POPC   H13S     75     0.090000     1.0080   ; qtot  0.000
    76       CTL2      5     POPC   C214     76    -0.180000    12.0110   ; qtot -0.180
    77       HAL2      5     POPC   H14R     77     0.090000     1.0080   ; qtot -0.090
    78       HAL2      5     POPC   H14S     78     0.090000     1.0080   ; qtot  0.000
    79       CTL2      5     POPC   C215     79    -0.180000    12.0110   ; qtot -0.180
    80       HAL2      5     POPC   H15R     80     0.090000     1.0080   ; qtot -0.090
    81       HAL2      5     POPC   H15S     81     0.090000     1.0080   ; qtot  0.000
    82       CTL2      5     POPC   C216     82    -0.180000    12.0110   ; qtot -0.180
    83       HAL2      5     POPC   H16R     83     0.090000     1.0080   ; qtot -0.090
    84       HAL2      5     POPC   H16S     84     0.090000     1.0080   ; qtot  0.000
    85       CTL2      5     POPC   C217     85    -0.180000    12.0110   ; qtot -0.180
    86       HAL2      5     POPC   H17R     86     0.090000     1.0080   ; qtot -0.090
    87       HAL2      5     POPC   H17S     87     0.090000     1.0080   ; qtot  0.000
    88       CTL3      5     POPC   C218     88    -0.270000    12.0110   ; qtot -0.270
    89       HAL3      5     POPC   H18R     89     0.090000     1.0080   ; qtot -0.180
    90       HAL3      5     POPC   H18S     90     0.090000     1.0080   ; qtot -0.090
    91       HAL3      5     POPC   H18T     91     0.090000     1.0080   ; qtot  0.000
    92       CTL2      5     POPC    C33     92    -0.180000    12.0110   ; qtot -0.180
    93       HAL2      5     POPC    H3X     93     0.090000     1.0080   ; qtot -0.090
    94       HAL2      5     POPC    H3Y     94     0.090000     1.0080   ; qtot  0.000
    95       CTL2      5     POPC    C34     95    -0.180000    12.0110   ; qtot -0.180
    96       HAL2      5     POPC    H4X     96     0.090000     1.0080   ; qtot -0.090
    97       HAL2      5     POPC    H4Y     97     0.090000     1.0080   ; qtot  0.000
    98       CTL2      5     POPC    C35     98    -0.180000    12.0110   ; qtot -0.180
    99       HAL2      5     POPC    H5X     99     0.090000     1.0080   ; qtot -0.090
   100       HAL2      5     POPC    H5Y    100     0.090000     1.0080   ; qtot  0.000
   101       CTL2      5     POPC    C36    101    -0.180000    12.0110   ; qtot -0.180
   102       HAL2      5     POPC    H6X    102     0.090000     1.0080   ; qtot -0.090
   103       HAL2      5     POPC    H6Y    103     0.090000     1.0080   ; qtot  0.000
   104       CTL2      5     POPC    C37    104    -0.180000    12.0110   ; qtot -0.180
   105       HAL2      5     POPC    H7X    105     0.090000     1.0080   ; qtot -0.090
   106       HAL2      5     POPC    H7Y    106     0.090000     1.0080   ; qtot  0.000
   107       CTL2      5     POPC    C38    107    -0.180000    12.0110   ; qtot -0.180
   108       HAL2      5     POPC    H8X    108     0.090000     1.0080   ; qtot -0.090
   109       HAL2      5     POPC    H8Y    109     0.090000     1.0080   ; qtot  0.000
   110       CTL2      5     POPC    C39    110    -0.180000    12.0110   ; qtot -0.180
   111       HAL2      5     POPC    H9X    111     0.090000     1.0080   ; qtot -0.090
   112       HAL2      5     POPC    H9Y    112     0.090000     1.0080   ; qtot  0.000
   113       CTL2      5     POPC   C310    113    -0.180000    12.0110   ; qtot -0.180
   114       HAL2      5     POPC   H10X    114     0.090000     1.0080   ; qtot -0.090
   115       HAL2      5     POPC   H10Y    115     0.090000     1.0080   ; qtot  0.000
   116       CTL2      5     POPC   C311    116    -0.180000    12.0110   ; qtot -0.180
   117       HAL2      5     POPC   H11X    117     0.090000     1.0080   ; qtot -0.090
   118       HAL2      5     POPC   H11Y    118     0.090000     1.0080   ; qtot  0.000
   119       CTL2      5     POPC   C312    119    -0.180000    12.0110   ; qtot -0.180
   120       HAL2      5     POPC   H12X    120     0.090000     1.0080   ; qtot -0.090
   121       HAL2      5     POPC   H12Y    121     0.090000     1.0080   ; qtot  0.000
   122       CTL2      5     POPC   C313    122    -0.180000    12.0110   ; qtot -0.180
   123       HAL2      5     POPC   H13X    123     0.090000     1.0080   ; qtot -0.090
   124       HAL2      5     POPC   H13Y    124     0.090000     1.0080   ; qtot  0.000
   125       CTL2      5     POPC   C314    125    -0.180000    12.0110   ; qtot -0.180
   126       HAL2      5     POPC   H14X    126     0.090000     1.0080   ; qtot -0.090
   127       HAL2      5     POPC   H14Y    127     0.090000     1.0080   ; qtot  0.000
   128       CTL2      5     POPC   C315    128    -0.180000    12.0110   ; qtot -0.180
   129       HAL2      5     POPC   H15X    129     0.090000     1.0080   ; qtot -0.090
   130       HAL2      5     POPC   H15Y    130     0.090000     1.0080   ; qtot  0.000
   131       CTL3      5     POPC   C316    131    -0.270000    12.0110   ; qtot -0.270
   132       HAL3      5     POPC   H16X    132     0.090000     1.0080   ; qtot -0.180
   133       HAL3      5     POPC   H16Y    133     0.090000     1.0080   ; qtot -0.090
   134       HAL3      5     POPC   H16Z    134     0.090000     1.0080   ; qtot  0.000

[ bonds ]
; ai	aj	funct	b0	Kb
    1     2     1
    1     5     1
    1     9     1
    1    13     1
    2     3     1
    2     4     1
    2    17     1
    5     6     1
    5     7     1
    5     8     1
    9    10     1
    9    11     1
    9    12     1
   13    14     1
   13    15     1
   13    16     1
   17    18     1
   17    19     1
   17    23     1
   20    21     1
   20    22     1
   23    20     1
   20    24     1
   24    25     1
   25    26     1
   25    27     1
   25    28     1
   28    29     1
   28    30     1
   28    36     1
   30    31     1
   31    32     1
   31    33     1
   33    34     1
   33    35     1
   33    45     1
   36    37     1
   36    38     1
   36    39     1
   39    40     1
   40    41     1
   40    42     1
   42    43     1
   42    44     1
   42    92     1
   45    46     1
   45    47     1
   45    48     1
   48    49     1
   48    50     1
   48    51     1
   51    52     1
   51    53     1
   51    54     1
   54    55     1
   54    56     1
   54    57     1
   57    58     1
   57    59     1
   57    60     1
   60    61     1
   60    62     1
   60    63     1
   63    64     1
   63    65     1
   65    66     1
   65    67     1
   67    68     1
   67    69     1
   67    70     1
   70    71     1
   70    72     1
   70    73     1
   73    74     1
   73    75     1
   73    76     1
   76    77     1
   76    78     1
   76    79     1
   79    80     1
   79    81     1
   79    82     1
   82    83     1
   82    84     1
   82    85     1
   85    86     1
   85    87     1
   85    88     1
   88    89     1
   88    90     1
   88    91     1
   92    93     1
   92    94     1
   92    95     1
   95    96     1
   95    97     1
   95    98     1
   98    99     1
   98   100     1
   98   101     1
  101   102     1
  101   103     1
  101   104     1
  104   105     1
  104   106     1
  104   107     1
  107   108     1
  107   109     1
  107   110     1
  110   111     1
  110   112     1
  110   113     1
  113   114     1
  113   115     1
  113   116     1
  116   117     1
  116   118     1
  116   119     1
  119   120     1
  119   121     1
  119   122     1
  122   123     1
  122   124     1
  122   125     1
  125   126     1
  125   127     1
  125   128     1
  128   129     1
  128   130     1
  128   131     1
  131   132     1
  131   133     1
  131   134     1

[ pairs ]
; ai	aj	funct	c6	c12 or
; ai	aj	funct	fudgeQQ	q1	q2	c6	c12
    1    18     1
    1    19     1
    1    23     1
    2     6     1
    2     7     1
    2     8     1
    2    10     1
    2    11     1
    2    12     1
    2    14     1
    2    15     1
    2    16     1
    2    20     1
    3     5     1
    3     9     1
    3    13     1
    3    18     1
    3    19     1
    3    23     1
    4     5     1
    4     9     1
    4    13     1
    4    18     1
    4    19     1
    4    23     1
    5    10     1
    5    11     1
    5    12     1
    5    14     1
    5    15     1
    5    16     1
    5    17     1
    6     9     1
    6    13     1
    7     9     1
    7    13     1
    8     9     1
    8    13     1
    9    14     1
    9    15     1
    9    16     1
    9    17     1
   10    13     1
   11    13     1
   12    13     1
   13    17     1
   17    21     1
   17    22     1
   17    24     1
   18    20     1
   19    20     1
   20    26     1
   20    27     1
   20    28     1
   21    25     1
   22    25     1
   23    25     1
   24    29     1
   24    30     1
   24    36     1
   25    31     1
   25    37     1
   25    38     1
   25    39     1
   26    29     1
   26    30     1
   26    36     1
   27    29     1
   27    30     1
   27    36     1
   28    32     1
   28    33     1
   28    40     1
   29    31     1
   29    37     1
   29    38     1
   29    39     1
   30    34     1
   30    35     1
   30    37     1
   30    38     1
   30    39     1
   30    45     1
   31    36     1
   31    46     1
   31    47     1
   31    48     1
   32    34     1
   32    35     1
   32    45     1
   33    49     1
   33    50     1
   33    51     1
   34    46     1
   34    47     1
   34    48     1
   35    46     1
   35    47     1
   35    48     1
   36    41     1
   36    42     1
   37    40     1
   38    40     1
   39    43     1
   39    44     1
   39    92     1
   40    93     1
   40    94     1
   40    95     1
   41    43     1
   41    44     1
   41    92     1
   42    96     1
   42    97     1
   42    98     1
   43    93     1
   43    94     1
   43    95     1
   44    93     1
   44    94     1
   44    95     1
   45    52     1
   45    53     1
   45    54     1
   46    49     1
   46    50     1
   46    51     1
   47    49     1
   47    50     1
   47    51     1
   48    55     1
   48    56     1
   48    57     1
   49    52     1
   49    53     1
   49    54     1
   50    52     1
   50    53     1
   50    54     1
   51    58     1
   51    59     1
   51    60     1
   52    55     1
   52    56     1
   52    57     1
   53    55     1
   53    56     1
   53    57     1
   54    61     1
   54    62     1
   54    63     1
   55    58     1
   55    59     1
   55    60     1
   56    58     1
   56    59     1
   56    60     1
   57    64     1
   57    65     1
   58    61     1
   58    62     1
   58    63     1
   59    61     1
   59    62     1
   59    63     1
   60    66     1
   60    67     1
   61    64     1
   61    65     1
   62    64     1
   62    65     1
   63    68     1
   63    69     1
   63    70     1
   64    66     1
   64    67     1
   65    71     1
   65    72     1
   65    73     1
   66    68     1
   66    69     1
   66    70     1
   67    74     1
   67    75     1
   67    76     1
   68    71     1
   68    72     1
   68    73     1
   69    71     1
   69    72     1
   69    73     1
   70    77     1
   70    78     1
   70    79     1
   71    74     1
   71    75     1
   71    76     1
   72    74     1
   72    75     1
   72    76     1
   73    80     1
   73    81     1
   73    82     1
   74    77     1
   74    78     1
   74    79     1
   75    77     1
   75    78     1
   75    79     1
   76    83     1
   76    84     1
   76    85     1
   77    80     1
   77    81     1
   77    82     1
   78    80     1
   78    81     1
   78    82     1
   79    86     1
   79    87     1
   79    88     1
   80    83     1
   80    84     1
   80    85     1
   81    83     1
   81    84     1
   81    85     1
   82    89     1
   82    90     1
   82    91     1
   83    86     1
   83    87     1
   83    88     1
   84    86     1
   84    87     1
   84    88     1
   86    89     1
   86    90     1
   86    91     1
   87    89     1
   87    90     1
   87    91     1
   92    99     1
   92   100     1
   92   101     1
   93    96     1
   93    97     1
   93    98     1
   94    96     1
   94    97     1
   94    98     1
   95   102     1
   95   103     1
   95   104     1
   96    99     1
   96   100     1
   96   101     1
   97    99     1
   97   100     1
   97   101     1
   98   105     1
   98   106     1
   98   107     1
   99   102     1
   99   103     1
   99   104     1
  100   102     1
  100   103     1
  100   104     1
  101   108     1
  101   109     1
  101   110     1
  102   105     1
  102   106     1
  102   107     1
  103   105     1
  103   106     1
  103   107     1
  104   111     1
  104   112     1
  104   113     1
  105   108     1
  105   109     1
  105   110     1
  106   108     1
  106   109     1
  106   110     1
  107   114     1
  107   115     1
  107   116     1
  108   111     1
  108   112     1
  108   113     1
  109   111     1
  109   112     1
  109   113     1
  110   117     1
  110   118     1
  110   119     1
  111   114     1
  111   115     1
  111   116     1
  112   114     1
  112   115     1
  112   116     1
  113   120     1
  113   121     1
  113   122     1
  114   117     1
  114   118     1
  114   119     1
  115   117     1
  115   118     1
  115   119     1
  116   123     1
  116   124     1
  116   125     1
  117   120     1
  117   121     1
  117   122     1
  118   120     1
  118   121     1
  118   122     1
  119   126     1
  119   127     1
  119   128     1
  120   123     1
  120   124     1
  120   125     1
  121   123     1
  121   124     1
  121   125     1
  122   129     1
  122   130     1
  122   131     1
  123   126     1
  123   127     1
  123   128     1
  124   126     1
  124   127     1
  124   128     1
  125   132     1
  125   133     1
  125   134     1
  126   129     1
  126   130     1
  126   131     1
  127   129     1
  127   130     1
  127   131     1
  129   132     1
  129   133     1
  129   134     1
  130   132     1
  130   133     1
  130   134     1

[ angles ] 
; ai	aj	ak	funct	th0	cth	S0	Kub
    2     1     5     5
    2     1     9     5
    2     1    13     5
    5     1     9     5
    5     1    13     5
    9     1    13     5
    1     2     3     5
    1     2     4     5
    1     2    17     5
    3     2     4     5
    3     2    17     5
    4     2    17     5
    1     5     6     5
    1     5     7     5
    1     5     8     5
    6     5     7     5
    6     5     8     5
    7     5     8     5
    1     9    10     5
    1     9    11     5
    1     9    12     5
   10     9    11     5
   10     9    12     5
   11     9    12     5
    1    13    14     5
    1    13    15     5
    1    13    16     5
   14    13    15     5
   14    13    16     5
   15    13    16     5
    2    17    18     5
    2    17    19     5
    2    17    23     5
   18    17    19     5
   18    17    23     5
   19    17    23     5
   21    20    22     5
   21    20    23     5
   21    20    24     5
   22    20    23     5
   22    20    24     5
   23    20    24     5
   17    23    20     5
   20    24    25     5
   24    25    26     5
   24    25    27     5
   24    25    28     5
   26    25    27     5
   26    25    28     5
   27    25    28     5
   25    28    29     5
   25    28    30     5
   25    28    36     5
   29    28    30     5
   29    28    36     5
   30    28    36     5
   28    30    31     5
   30    31    32     5
   30    31    33     5
   32    31    33     5
   31    33    34     5
   31    33    35     5
   31    33    45     5
   34    33    35     5
   34    33    45     5
   35    33    45     5
   28    36    37     5
   28    36    38     5
   28    36    39     5
   37    36    38     5
   37    36    39     5
   38    36    39     5
   36    39    40     5
   39    40    41     5
   39    40    42     5
   41    40    42     5
   40    42    43     5
   40    42    44     5
   40    42    92     5
   43    42    44     5
   43    42    92     5
   44    42    92     5
   33    45    46     5
   33    45    47     5
   33    45    48     5
   46    45    47     5
   46    45    48     5
   47    45    48     5
   45    48    49     5
   45    48    50     5
   45    48    51     5
   49    48    50     5
   49    48    51     5
   50    48    51     5
   48    51    52     5
   48    51    53     5
   48    51    54     5
   52    51    53     5
   52    51    54     5
   53    51    54     5
   51    54    55     5
   51    54    56     5
   51    54    57     5
   55    54    56     5
   55    54    57     5
   56    54    57     5
   54    57    58     5
   54    57    59     5
   54    57    60     5
   58    57    59     5
   58    57    60     5
   59    57    60     5
   57    60    61     5
   57    60    62     5
   57    60    63     5
   61    60    62     5
   61    60    63     5
   62    60    63     5
   60    63    64     5
   60    63    65     5
   64    63    65     5
   63    65    66     5
   63    65    67     5
   66    65    67     5
   65    67    68     5
   65    67    69     5
   65    67    70     5
   68    67    69     5
   68    67    70     5
   69    67    70     5
   67    70    71     5
   67    70    72     5
   67    70    73     5
   71    70    72     5
   71    70    73     5
   72    70    73     5
   70    73    74     5
   70    73    75     5
   70    73    76     5
   74    73    75     5
   74    73    76     5
   75    73    76     5
   73    76    77     5
   73    76    78     5
   73    76    79     5
   77    76    78     5
   77    76    79     5
   78    76    79     5
   76    79    80     5
   76    79    81     5
   76    79    82     5
   80    79    81     5
   80    79    82     5
   81    79    82     5
   79    82    83     5
   79    82    84     5
   79    82    85     5
   83    82    84     5
   83    82    85     5
   84    82    85     5
   82    85    86     5
   82    85    87     5
   82    85    88     5
   86    85    87     5
   86    85    88     5
   87    85    88     5
   85    88    89     5
   85    88    90     5
   85    88    91     5
   89    88    90     5
   89    88    91     5
   90    88    91     5
   42    92    93     5
   42    92    94     5
   42    92    95     5
   93    92    94     5
   93    92    95     5
   94    92    95     5
   92    95    96     5
   92    95    97     5
   92    95    98     5
   96    95    97     5
   96    95    98     5
   97    95    98     5
   95    98    99     5
   95    98   100     5
   95    98   101     5
   99    98   100     5
   99    98   101     5
  100    98   101     5
   98   101   102     5
   98   101   103     5
   98   101   104     5
  102   101   103     5
  102   101   104     5
  103   101   104     5
  101   104   105     5
  101   104   106     5
  101   104   107     5
  105   104   106     5
  105   104   107     5
  106   104   107     5
  104   107   108     5
  104   107   109     5
  104   107   110     5
  108   107   109     5
  108   107   110     5
  109   107   110     5
  107   110   111     5
  107   110   112     5
  107   110   113     5
  111   110   112     5
  111   110   113     5
  112   110   113     5
  110   113   114     5
  110   113   115     5
  110   113   116     5
  114   113   115     5
  114   113   116     5
  115   113   116     5
  113   116   117     5
  113   116   118     5
  113   116   119     5
  117   116   118     5
  117   116   119     5
  118   116   119     5
  116   119   120     5
  116   119   121     5
  116   119   122     5
  120   119   121     5
  120   119   122     5
  121   119   122     5
  119   122   123     5
  119   122   124     5
  119   122   125     5
  123   122   124     5
  123   122   125     5
  124   122   125     5
  122   125   126     5
  122   125   127     5
  122   125   128     5
  126   125   127     5
  126   125   128     5
  127   125   128     5
  125   128   129     5
  125   128   130     5
  125   128   131     5
  129   128   130     5
  129   128   131     5
  130   128   131     5
  128   131   132     5
  128   131   133     5
  128   131   134     5
  132   131   133     5
  132   131   134     5
  133   131   134     5

[ dihedrals ]
; ai	aj	ak	al	funct	phi0	cp	mult
    5     1     2    17     9
    9     1     2    17     9
   13     1     2    17     9
    2     1     5     6     9
    2     1     5     7     9
    2     1     5     8     9
    2     1     9    10     9
    2     1     9    11     9
    2     1     9    12     9
    5     1     9    10     9
    5     1     9    11     9
    5     1     9    12     9
    2     1    13    14     9
    2     1    13    15     9
    2     1    13    16     9
    5     1    13    14     9
    5     1    13    15     9
    5     1    13    16     9
    9     1    13    14     9
    9     1    13    15     9
    9     1    13    16     9
    3     2     1     5     9
    3     2     1     9     9
    3     2     1    13     9
    4     2     1     5     9
    4     2     1     9     9
    4     2     1    13     9
    1     2    17    18     9
    1     2    17    19     9
    1     2    17    23     9
    3     2    17    18     9
    3     2    17    19     9
    3     2    17    23     9
    4     2    17    18     9
    4     2    17    19     9
    4     2    17    23     9
    6     5     1     9     9
    6     5     1    13     9
    7     5     1     9     9
    7     5     1    13     9
    8     5     1     9     9
    8     5     1    13     9
   10     9     1    13     9
   11     9     1    13     9
   12     9     1    13     9
    2    17    23    20     9
   18    17    23    20     9
   19    17    23    20     9
   21    20    24    25     9
   22    20    24    25     9
   23    20    24    25     9
   17    23    20    21     9
   17    23    20    22     9
   17    23    20    24     9
   20    24    25    26     9
   20    24    25    27     9
   20    24    25    28     9
   24    25    28    29     9
   24    25    28    30     9
   24    25    28    36     9
   26    25    28    29     9
   26    25    28    30     9
   26    25    28    36     9
   27    25    28    29     9
   27    25    28    30     9
   27    25    28    36     9
   25    28    30    31     9
   29    28    30    31     9
   25    28    36    37     9
   25    28    36    38     9
   25    28    36    39     9
   29    28    36    37     9
   29    28    36    38     9
   29    28    36    39     9
   30    28    36    37     9
   30    28    36    38     9
   30    28    36    39     9
   31    30    28    36     9
   28    30    31    32     9
   28    30    31    33     9
   30    31    33    34     9
   30    31    33    35     9
   30    31    33    45     9
   32    31    33    34     9
   32    31    33    35     9
   32    31    33    45     9
   31    33    45    46     9
   31    33    45    47     9
   31    33    45    48     9
   34    33    45    46     9
   34    33    45    47     9
   34    33    45    48     9
   35    33    45    46     9
   35    33    45    47     9
   35    33    45    48     9
   28    36    39    40     9
   37    36    39    40     9
   38    36    39    40     9
   36    39    40    41     9
   36    39    40    42     9
   39    40    42    43     9
   39    40    42    44     9
   39    40    42    92     9
   41    40    42    43     9
   41    40    42    44     9
   41    40    42    92     9
   40    42    92    93     9
   40    42    92    94     9
   40    42    92    95     9
   43    42    92    93     9
   43    42    92    94     9
   43    42    92    95     9
   44    42    92    93     9
   44    42    92    94     9
   44    42    92    95     9
   33    45    48    49     9
   33    45    48    50     9
   33    45    48    51     9
   46    45    48    49     9
   46    45    48    50     9
   46    45    48    51     9
   47    45    48    49     9
   47    45    48    50     9
   47    45    48    51     9
   45    48    51    52     9
   45    48    51    53     9
   45    48    51    54     9
   49    48    51    52     9
   49    48    51    53     9
   49    48    51    54     9
   50    48    51    52     9
   50    48    51    53     9
   50    48    51    54     9
   48    51    54    55     9
   48    51    54    56     9
   48    51    54    57     9
   52    51    54    55     9
   52    51    54    56     9
   52    51    54    57     9
   53    51    54    55     9
   53    51    54    56     9
   53    51    54    57     9
   51    54    57    58     9
   51    54    57    59     9
   51    54    57    60     9
   55    54    57    58     9
   55    54    57    59     9
   55    54    57    60     9
   56    54    57    58     9
   56    54    57    59     9
   56    54    57    60     9
   54    57    60    61     9
   54    57    60    62     9
   54    57    60    63     9
   58    57    60    61     9
   58    57    60    62     9
   58    57    60    63     9
   59    57    60    61     9
   59    57    60    62     9
   59    57    60    63     9
   57    60    63    64     9
   57    60    63    65     9
   61    60    63    64     9
   61    60    63    65     9
   62    60    63    64     9
   62    60    63    65     9
   60    63    65    66     9
   60    63    65    67     9
   64    63    65    66     9
   64    63    65    67     9
   63    65    67    68     9
   63    65    67    69     9
   63    65    67    70     9
   66    65    67    68     9
   66    65    67    69     9
   66    65    67    70     9
   65    67    70    71     9
   65    67    70    72     9
   65    67    70    73     9
   68    67    70    71     9
   68    67    70    72     9
   68    67    70    73     9
   69    67    70    71     9
   69    67    70    72     9
   69    67    70    73     9
   67    70    73    74     9
   67    70    73    75     9
   67    70    73    76     9
   71    70    73    74     9
   71    70    73    75     9
   71    70    73    76     9
   72    70    73    74     9
   72    70    73    75     9
   72    70    73    76     9
   70    73    76    77     9
   70    73    76    78     9
   70    73    76    79     9
   74    73    76    77     9
   74    73    76    78     9
   74    73    76    79     9
   75    73    76    77     9
   75    73    76    78     9
   75    73    76    79     9
   73    76    79    80     9
   73    76    79    81     9
   73    76    79    82     9
   77    76    79    80     9
   77    76    79    81     9
   77    76    79    82     9
   78    76    79    80     9
   78    76    79    81     9
   78    76    79    82     9
   76    79    82    83     9
   76    79    82    84     9
   76    79    82    85     9
   80    79    82    83     9
   80    79    82    84     9
   80    79    82    85     9
   81    79    82    83     9
   81    79    82    84     9
   81    79    82    85     9
   79    82    85    86     9
   79    82    85    87     9
   79    82    85    88     9
   83    82    85    86     9
   83    82    85    87     9
   83    82    85    88     9
   84    82    85    86     9
   84    82    85    87     9
   84    82    85    88     9
   82    85    88    89     9
   82    85    88    90     9
   82    85    88    91     9
   86    85    88    89     9
   86    85    88    90     9
   86    85    88    91     9
   87    85    88    89     9
   87    85    88    90     9
   87    85    88    91     9
   42    92    95    96     9
   42    92    95    97     9
   42    92    95    98     9
   93    92    95    96     9
   93    92    95    97     9
   93    92    95    98     9
   94    92    95    96     9
   94    92    95    97     9
   94    92    95    98     9
   92    95    98    99     9
   92    95    98   100     9
   92    95    98   101     9
   96    95    98    99     9
   96    95    98   100     9
   96    95    98   101     9
   97    95    98    99     9
   97    95    98   100     9
   97    95    98   101     9
   95    98   101   102     9
   95    98   101   103     9
   95    98   101   104     9
   99    98   101   102     9
   99    98   101   103     9
   99    98   101   104     9
  100    98   101   102     9
  100    98   101   103     9
  100    98   101   104     9
   98   101   104   105     9
   98   101   104   106     9
   98   101   104   107     9
  102   101   104   105     9
  102   101   104   106     9
  102   101   104   107     9
  103   101   104   105     9
  103   101   104   106     9
  103   101   104   107     9
  101   104   107   108     9
  101   104   107   109     9
  101   104   107   110     9
  105   104   107   108     9
  105   104   107   109     9
  105   104   107   110     9
  106   104   107   108     9
  106   104   107   109     9
  106   104   107   110     9
  104   107   110   111     9
  104   107   110   112     9
  104   107   110   113     9
  108   107   110   111     9
  108   107   110   112     9
  108   107   110   113     9
  109   107   110   111     9
  109   107   110   112     9
  109   107   110   113     9
  107   110   113   114     9
  107   110   113   115     9
  107   110   113   116     9
  111   110   113   114     9
  111   110   113   115     9
  111   110   113   116     9
  112   110   113   114     9
  112   110   113   115     9
  112   110   113   116     9
  110   113   116   117     9
  110   113   116   118     9
  110   113   116   119     9
  114   113   116   117     9
  114   113   116   118     9
  114   113   116   119     9
  115   113   116   117     9
  115   113   116   118     9
  115   113   116   119     9
  113   116   119   120     9
  113   116   119   121     9
  113   116   119   122     9
  117   116   119   120     9
  117   116   119   121     9
  117   116   119   122     9
  118   116   119   120     9
  118   116   119   121     9
  118   116   119   122     9
  116   119   122   123     9
  116   119   122   124     9
  116   119   122   125     9
  120   119   122   123     9
  120   119   122   124     9
  120   119   122   125     9
  121   119   122   123     9
  121   119   122   124     9
  121   119   122   125     9
  119   122   125   126     9
  119   122   125   127     9
  119   122   125   128     9
  123   122   125   126     9
  123   122   125   127     9
  123   122   125   128     9
  124   122   125   126     9
  124   122   125   127     9
  124   122   125   128     9
  122   125   128   129     9
  122   125   128   130     9
  122   125   128   131     9
  126   125   128   129     9
  126   125   128   130     9
  126   125   128   131     9
  127   125   128   129     9
  127   125   128   130     9
  127   125   128   131     9
  125   128   131   132     9
  125   128   131   133     9
  125   128   131   134     9
  129   128   131   132     9
  129   128   131   133     9
  129   128   131   134     9
  130   128   131   132     9
  130   128   131   133     9
  130   128   131   134     9

[ dihedrals ]
; ai	aj	ak	al	funct	q0	cq
   31    30    33    32     2
   40    39    42    41     2

[ position_restraints ]
   20     1     0.0             0.0            1000.0

[ dihedral_restraints ]
   25    36    28    30     1   -120.0      2.5       1000.0
   60    63    65    67     1      0.0      0.0       1000.0
;;
;; Generated by CHARMM-GUI FF-Converter
;;
;; Correspondance:
;; jul316@lehigh.edu or wonpil@lehigh.edu
;;
;; GROMACS topology file for POPI
;;


[ moleculetype ]
; name	nrexcl
POPI	     3

[ atoms ]
; nr	type	resnr	residu	atom	cgnr	charge	mass
     1     CC3161      8     POPI    C12      1     0.140000    12.0110   ; qtot  0.140
     2       HCA1      8     POPI     H2      2     0.090000     1.0080   ; qtot  0.230
     3      OC311      8     POPI     O2      3    -0.650000    15.9994   ; qtot -0.420
     4       HCP1      8     POPI    HO2      4     0.420000     1.0080   ; qtot -0.000
     5     CC3161      8     POPI    C13      5     0.140000    12.0110   ; qtot  0.140
     6       HCA1      8     POPI     H3      6     0.090000     1.0080   ; qtot  0.230
     7      OC311      8     POPI     O3      7    -0.650000    15.9994   ; qtot -0.420
     8       HCP1      8     POPI    HO3      8     0.420000     1.0080   ; qtot -0.000
     9     CC3161      8     POPI    C14      9     0.140000    12.0110   ; qtot  0.140
    10       HCA1      8     POPI     H4     10     0.090000     1.0080   ; qtot  0.230
    11      OC311      8     POPI     O4     11    -0.650000    15.9994   ; qtot -0.420
    12       HCP1      8     POPI    HO4     12     0.420000     1.0080   ; qtot -0.000
    13     CC3161      8     POPI    C15     13     0.140000    12.0110   ; qtot  0.140
    14       HCA1      8     POPI     H5     14     0.090000     1.0080   ; qtot  0.230
    15      OC311      8     POPI     O5     15    -0.650000    15.9994   ; qtot -0.420
    16       HCP1      8     POPI    HO5     16     0.420000     1.0080   ; qtot -0.000
    17     CC3161      8     POPI    C16     17     0.140000    12.0110   ; qtot  0.140
    18       HCA1      8     POPI     H6     18     0.090000     1.0080   ; qtot  0.230
    19      OC311      8     POPI     O6     19    -0.650000    15.9994   ; qtot -0.420
    20       HCP1      8     POPI    HO6     20     0.420000     1.0080   ; qtot -0.000
    21     CC3161      8     POPI    C11     21    -0.080000    12.0110   ; qtot -0.080
    22       HCA1      8     POPI     H1     22     0.090000     1.0080   ; qtot  0.010
    23         PL      8     POPI      P     23     1.590000    30.9740   ; qtot  1.600
    24        O2L      8     POPI    O13     24    -0.780000    15.9994   ; qtot  0.820
    25        O2L      8     POPI    O14     25    -0.780000    15.9994   ; qtot  0.040
    26      OC30P      8     POPI    O12     26    -0.570000    15.9994   ; qtot -0.530
    27       OSLP      8     POPI    O11     27    -0.570000    15.9994   ; qtot -1.100
    28       CTL2      8     POPI     C1     28    -0.080000    12.0110   ; qtot -1.180
    29       HAL2      8     POPI     HA     29     0.090000     1.0080   ; qtot -1.090
    30       HAL2      8     POPI     HB     30     0.090000     1.0080   ; qtot -1.000
    31       CTL1      8     POPI     C2     31     0.170000    12.0110   ; qtot -0.830
    32       HAL1      8     POPI     HS     32     0.090000     1.0080   ; qtot -0.740
    33        OSL      8     POPI    O21     33    -0.490000    15.9994   ; qtot -1.230
    34         CL      8     POPI    C21     34     0.900000    12.0110   ; qtot -0.330
    35        OBL      8     POPI    O22     35    -0.630000    15.9994   ; qtot -0.960
    36       CTL2      8     POPI    C22     36    -0.220000    12.0110   ; qtot -1.180
    37       HAL2      8     POPI    H2R     37     0.090000     1.0080   ; qtot -1.090
    38       HAL2      8     POPI    H2S     38     0.090000     1.0080   ; qtot -1.000
    39       CTL2      8     POPI     C3     39     0.080000    12.0110   ; qtot -0.920
    40       HAL2      8     POPI     HX     40     0.090000     1.0080   ; qtot -0.830
    41       HAL2      8     POPI     HY     41     0.090000     1.0080   ; qtot -0.740
    42        OSL      8     POPI    O31     42    -0.490000    15.9994   ; qtot -1.230
    43         CL      8     POPI    C31     43     0.900000    12.0110   ; qtot -0.330
    44        OBL      8     POPI    O32     44    -0.630000    15.9994   ; qtot -0.960
    45       CTL2      8     POPI    C32     45    -0.220000    12.0110   ; qtot -1.180
    46       HAL2      8     POPI    H2X     46     0.090000     1.0080   ; qtot -1.090
    47       HAL2      8     POPI    H2Y     47     0.090000     1.0080   ; qtot -1.000
    48       CTL2      8     POPI    C23     48    -0.180000    12.0110   ; qtot -1.180
    49       HAL2      8     POPI    H3R     49     0.090000     1.0080   ; qtot -1.090
    50       HAL2      8     POPI    H3S     50     0.090000     1.0080   ; qtot -1.000
    51       CTL2      8     POPI    C24     51    -0.180000    12.0110   ; qtot -1.180
    52       HAL2      8     POPI    H4R     52     0.090000     1.0080   ; qtot -1.090
    53       HAL2      8     POPI    H4S     53     0.090000     1.0080   ; qtot -1.000
    54       CTL2      8     POPI    C25     54    -0.180000    12.0110   ; qtot -1.180
    55       HAL2      8     POPI    H5R     55     0.090000     1.0080   ; qtot -1.090
    56       HAL2      8     POPI    H5S     56     0.090000     1.0080   ; qtot -1.000
    57       CTL2      8     POPI    C26     57    -0.180000    12.0110   ; qtot -1.180
    58       HAL2      8     POPI    H6R     58     0.090000     1.0080   ; qtot -1.090
    59       HAL2      8     POPI    H6S     59     0.090000     1.0080   ; qtot -1.000
    60       CTL2      8     POPI    C27     60    -0.180000    12.0110   ; qtot -1.180
    61       HAL2      8     POPI    H7R     61     0.090000     1.0080   ; qtot -1.090
    62       HAL2      8     POPI    H7S     62     0.090000     1.0080   ; qtot -1.000
    63       CTL2      8     POPI    C28     63    -0.180000    12.0110   ; qtot -1.180
    64       HAL2      8     POPI    H8R     64     0.090000     1.0080   ; qtot -1.090
    65       HAL2      8     POPI    H8S     65     0.090000     1.0080   ; qtot -1.000
    66       CEL1      8     POPI    C29     66    -0.150000    12.0110   ; qtot -1.150
    67       HEL1      8     POPI    H91     67     0.150000     1.0080   ; qtot -1.000
    68       CEL1      8     POPI   C210     68    -0.150000    12.0110   ; qtot -1.150
    69       HEL1      8     POPI   H101     69     0.150000     1.0080   ; qtot -1.000
    70       CTL2      8     POPI   C211     70    -0.180000    12.0110   ; qtot -1.180
    71       HAL2      8     POPI   H11R     71     0.090000     1.0080   ; qtot -1.090
    72       HAL2      8     POPI   H11S     72     0.090000     1.0080   ; qtot -1.000
    73       CTL2      8     POPI   C212     73    -0.180000    12.0110   ; qtot -1.180
    74       HAL2      8     POPI   H12R     74     0.090000     1.0080   ; qtot -1.090
    75       HAL2      8     POPI   H12S     75     0.090000     1.0080   ; qtot -1.000
    76       CTL2      8     POPI   C213     76    -0.180000    12.0110   ; qtot -1.180
    77       HAL2      8     POPI   H13R     77     0.090000     1.0080   ; qtot -1.090
    78       HAL2      8     POPI   H13S     78     0.090000     1.0080   ; qtot -1.000
    79       CTL2      8     POPI   C214     79    -0.180000    12.0110   ; qtot -1.180
    80       HAL2      8     POPI   H14R     80     0.090000     1.0080   ; qtot -1.090
    81       HAL2      8     POPI   H14S     81     0.090000     1.0080   ; qtot -1.000
    82       CTL2      8     POPI   C215     82    -0.180000    12.0110   ; qtot -1.180
    83       HAL2      8     POPI   H15R     83     0.090000     1.0080   ; qtot -1.090
    84       HAL2      8     POPI   H15S     84     0.090000     1.0080   ; qtot -1.000
    85       CTL2      8     POPI   C216     85    -0.180000    12.0110   ; qtot -1.180
    86       HAL2      8     POPI   H16R     86     0.090000     1.0080   ; qtot -1.090
    87       HAL2      8     POPI   H16S     87     0.090000     1.0080   ; qtot -1.000
    88       CTL2      8     POPI   C217     88    -0.180000    12.0110   ; qtot -1.180
    89       HAL2      8     POPI   H17R     89     0.090000     1.0080   ; qtot -1.090
    90       HAL2      8     POPI   H17S     90     0.090000     1.0080   ; qtot -1.000
    91       CTL3      8     POPI   C218     91    -0.270000    12.0110   ; qtot -1.270
    92       HAL3      8     POPI   H18R     92     0.090000     1.0080   ; qtot -1.180
    93       HAL3      8     POPI   H18S     93     0.090000     1.0080   ; qtot -1.090
    94       HAL3      8     POPI   H18T     94     0.090000     1.0080   ; qtot -1.000
    95       CTL2      8     POPI    C33     95    -0.180000    12.0110   ; qtot -1.180
    96       HAL2      8     POPI    H3X     96     0.090000     1.0080   ; qtot -1.090
    97       HAL2      8     POPI    H3Y     97     0.090000     1.0080   ; qtot -1.000
    98       CTL2      8     POPI    C34     98    -0.180000    12.0110   ; qtot -1.180
    99       HAL2      8     POPI    H4X     99     0.090000     1.0080   ; qtot -1.090
   100       HAL2      8     POPI    H4Y    100     0.090000     1.0080   ; qtot -1.000
   101       CTL2      8     POPI    C35    101    -0.180000    12.0110   ; qtot -1.180
   102       HAL2      8     POPI    H5X    102     0.090000     1.0080   ; qtot -1.090
   103       HAL2      8     POPI    H5Y    103     0.090000     1.0080   ; qtot -1.000
   104       CTL2      8     POPI    C36    104    -0.180000    12.0110   ; qtot -1.180
   105       HAL2      8     POPI    H6X    105     0.090000     1.0080   ; qtot -1.090
   106       HAL2      8     POPI    H6Y    106     0.090000     1.0080   ; qtot -1.000
   107       CTL2      8     POPI    C37    107    -0.180000    12.0110   ; qtot -1.180
   108       HAL2      8     POPI    H7X    108     0.090000     1.0080   ; qtot -1.090
   109       HAL2      8     POPI    H7Y    109     0.090000     1.0080   ; qtot -1.000
   110       CTL2      8     POPI    C38    110    -0.180000    12.0110   ; qtot -1.180
   111       HAL2      8     POPI    H8X    111     0.090000     1.0080   ; qtot -1.090
   112       HAL2      8     POPI    H8Y    112     0.090000     1.0080   ; qtot -1.000
   113       CTL2      8     POPI    C39    113    -0.180000    12.0110   ; qtot -1.180
   114       HAL2      8     POPI    H9X    114     0.090000     1.0080   ; qtot -1.090
   115       HAL2      8     POPI    H9Y    115     0.090000     1.0080   ; qtot -1.000
   116       CTL2      8     POPI   C310    116    -0.180000    12.0110   ; qtot -1.180
   117       HAL2      8     POPI   H10X    117     0.090000     1.0080   ; qtot -1.090
   118       HAL2      8     POPI   H10Y    118     0.090000     1.0080   ; qtot -1.000
   119       CTL2      8     POPI   C311    119    -0.180000    12.0110   ; qtot -1.180
   120       HAL2      8     POPI   H11X    120     0.090000     1.0080   ; qtot -1.090
   121       HAL2      8     POPI   H11Y    121     0.090000     1.0080   ; qtot -1.000
   122       CTL2      8     POPI   C312    122    -0.180000    12.0110   ; qtot -1.180
   123       HAL2      8     POPI   H12X    123     0.090000     1.0080   ; qtot -1.090
   124       HAL2      8     POPI   H12Y    124     0.090000     1.0080   ; qtot -1.000
   125       CTL2      8     POPI   C313    125    -0.180000    12.0110   ; qtot -1.180
   126       HAL2      8     POPI   H13X    126     0.090000     1.0080   ; qtot -1.090
   127       HAL2      8     POPI   H13Y    127     0.090000     1.0080   ; qtot -1.000
   128       CTL2      8     POPI   C314    128    -0.180000    12.0110   ; qtot -1.180
   129       HAL2      8     POPI   H14X    129     0.090000     1.0080   ; qtot -1.090
   130       HAL2      8     POPI   H14Y    130     0.090000     1.0080   ; qtot -1.000
   131       CTL2      8     POPI   C315    131    -0.180000    12.0110   ; qtot -1.180
   132       HAL2      8     POPI   H15X    132     0.090000     1.0080   ; qtot -1.090
   133       HAL2      8     POPI   H15Y    133     0.090000     1.0080   ; qtot -1.000
   134       CTL3      8     POPI   C316    134    -0.270000    12.0110   ; qtot -1.270
   135       HAL3      8     POPI   H16X    135     0.090000     1.0080   ; qtot -1.180
   136       HAL3      8     POPI   H16Y    136     0.090000     1.0080   ; qtot -1.090
   137       HAL3      8     POPI   H16Z    137     0.090000     1.0080   ; qtot -1.000

[ bonds ]
; ai	aj	funct	b0	Kb
    1     2     1
    1     3     1
    1     5     1
   21     1     1
    3     4     1
    5     6     1
    5     7     1
    5     9     1
    7     8     1
    9    10     1
    9    11     1
    9    13     1
   11    12     1
   13    14     1
   13    15     1
   13    17     1
   15    16     1
   17    18     1
   17    19     1
   21    17     1
   19    20     1
   21    22     1
   21    26     1
   23    24     1
   23    25     1
   26    23     1
   23    27     1
   27    28     1
   28    29     1
   28    30     1
   28    31     1
   31    32     1
   31    33     1
   31    39     1
   33    34     1
   34    35     1
   34    36     1
   36    37     1
   36    38     1
   36    48     1
   39    40     1
   39    41     1
   39    42     1
   42    43     1
   43    44     1
   43    45     1
   45    46     1
   45    47     1
   45    95     1
   48    49     1
   48    50     1
   48    51     1
   51    52     1
   51    53     1
   51    54     1
   54    55     1
   54    56     1
   54    57     1
   57    58     1
   57    59     1
   57    60     1
   60    61     1
   60    62     1
   60    63     1
   63    64     1
   63    65     1
   63    66     1
   66    67     1
   66    68     1
   68    69     1
   68    70     1
   70    71     1
   70    72     1
   70    73     1
   73    74     1
   73    75     1
   73    76     1
   76    77     1
   76    78     1
   76    79     1
   79    80     1
   79    81     1
   79    82     1
   82    83     1
   82    84     1
   82    85     1
   85    86     1
   85    87     1
   85    88     1
   88    89     1
   88    90     1
   88    91     1
   91    92     1
   91    93     1
   91    94     1
   95    96     1
   95    97     1
   95    98     1
   98    99     1
   98   100     1
   98   101     1
  101   102     1
  101   103     1
  101   104     1
  104   105     1
  104   106     1
  104   107     1
  107   108     1
  107   109     1
  107   110     1
  110   111     1
  110   112     1
  110   113     1
  113   114     1
  113   115     1
  113   116     1
  116   117     1
  116   118     1
  116   119     1
  119   120     1
  119   121     1
  119   122     1
  122   123     1
  122   124     1
  122   125     1
  125   126     1
  125   127     1
  125   128     1
  128   129     1
  128   130     1
  128   131     1
  131   132     1
  131   133     1
  131   134     1
  134   135     1
  134   136     1
  134   137     1

[ pairs ]
; ai	aj	funct	c6	c12 or
; ai	aj	funct	fudgeQQ	q1	q2	c6	c12
    1     8     1
    1    10     1
    1    11     1
    1    13     1
    1    18     1
    1    19     1
    1    23     1
    2     4     1
    2     6     1
    2     7     1
    2     9     1
    2    17     1
    2    22     1
    2    26     1
    3     6     1
    3     7     1
    3     9     1
    3    17     1
    3    22     1
    3    26     1
    4     5     1
    4    21     1
    5    12     1
    5    14     1
    5    15     1
    5    17     1
    5    22     1
    5    26     1
    6     8     1
    6    10     1
    6    11     1
    6    13     1
    6    21     1
    7    10     1
    7    11     1
    7    13     1
    7    21     1
    8     9     1
    9    16     1
    9    18     1
    9    19     1
    9    21     1
   10    12     1
   10    14     1
   10    15     1
   10    17     1
   11    14     1
   11    15     1
   11    17     1
   12    13     1
   13    20     1
   13    22     1
   13    26     1
   14    16     1
   14    18     1
   14    19     1
   14    21     1
   15    18     1
   15    19     1
   15    21     1
   16    17     1
   17    23     1
   18    20     1
   18    22     1
   18    26     1
   19    22     1
   19    26     1
   20    21     1
   21    24     1
   21    25     1
   21    27     1
   22    23     1
   23    29     1
   23    30     1
   23    31     1
   24    28     1
   25    28     1
   26    28     1
   27    32     1
   27    33     1
   27    39     1
   28    34     1
   28    40     1
   28    41     1
   28    42     1
   29    32     1
   29    33     1
   29    39     1
   30    32     1
   30    33     1
   30    39     1
   31    35     1
   31    36     1
   31    43     1
   32    34     1
   32    40     1
   32    41     1
   32    42     1
   33    37     1
   33    38     1
   33    40     1
   33    41     1
   33    42     1
   33    48     1
   34    39     1
   34    49     1
   34    50     1
   34    51     1
   35    37     1
   35    38     1
   35    48     1
   36    52     1
   36    53     1
   36    54     1
   37    49     1
   37    50     1
   37    51     1
   38    49     1
   38    50     1
   38    51     1
   39    44     1
   39    45     1
   40    43     1
   41    43     1
   42    46     1
   42    47     1
   42    95     1
   43    96     1
   43    97     1
   43    98     1
   44    46     1
   44    47     1
   44    95     1
   45    99     1
   45   100     1
   45   101     1
   46    96     1
   46    97     1
   46    98     1
   47    96     1
   47    97     1
   47    98     1
   48    55     1
   48    56     1
   48    57     1
   49    52     1
   49    53     1
   49    54     1
   50    52     1
   50    53     1
   50    54     1
   51    58     1
   51    59     1
   51    60     1
   52    55     1
   52    56     1
   52    57     1
   53    55     1
   53    56     1
   53    57     1
   54    61     1
   54    62     1
   54    63     1
   55    58     1
   55    59     1
   55    60     1
   56    58     1
   56    59     1
   56    60     1
   57    64     1
   57    65     1
   57    66     1
   58    61     1
   58    62     1
   58    63     1
   59    61     1
   59    62     1
   59    63     1
   60    67     1
   60    68     1
   61    64     1
   61    65     1
   61    66     1
   62    64     1
   62    65     1
   62    66     1
   63    69     1
   63    70     1
   64    67     1
   64    68     1
   65    67     1
   65    68     1
   66    71     1
   66    72     1
   66    73     1
   67    69     1
   67    70     1
   68    74     1
   68    75     1
   68    76     1
   69    71     1
   69    72     1
   69    73     1
   70    77     1
   70    78     1
   70    79     1
   71    74     1
   71    75     1
   71    76     1
   72    74     1
   72    75     1
   72    76     1
   73    80     1
   73    81     1
   73    82     1
   74    77     1
   74    78     1
   74    79     1
   75    77     1
   75    78     1
   75    79     1
   76    83     1
   76    84     1
   76    85     1
   77    80     1
   77    81     1
   77    82     1
   78    80     1
   78    81     1
   78    82     1
   79    86     1
   79    87     1
   79    88     1
   80    83     1
   80    84     1
   80    85     1
   81    83     1
   81    84     1
   81    85     1
   82    89     1
   82    90     1
   82    91     1
   83    86     1
   83    87     1
   83    88     1
   84    86     1
   84    87     1
   84    88     1
   85    92     1
   85    93     1
   85    94     1
   86    89     1
   86    90     1
   86    91     1
   87    89     1
   87    90     1
   87    91     1
   89    92     1
   89    93     1
   89    94     1
   90    92     1
   90    93     1
   90    94     1
   95   102     1
   95   103     1
   95   104     1
   96    99     1
   96   100     1
   96   101     1
   97    99     1
   97   100     1
   97   101     1
   98   105     1
   98   106     1
   98   107     1
   99   102     1
   99   103     1
   99   104     1
  100   102     1
  100   103     1
  100   104     1
  101   108     1
  101   109     1
  101   110     1
  102   105     1
  102   106     1
  102   107     1
  103   105     1
  103   106     1
  103   107     1
  104   111     1
  104   112     1
  104   113     1
  105   108     1
  105   109     1
  105   110     1
  106   108     1
  106   109     1
  106   110     1
  107   114     1
  107   115     1
  107   116     1
  108   111     1
  108   112     1
  108   113     1
  109   111     1
  109   112     1
  109   113     1
  110   117     1
  110   118     1
  110   119     1
  111   114     1
  111   115     1
  111   116     1
  112   114     1
  112   115     1
  112   116     1
  113   120     1
  113   121     1
  113   122     1
  114   117     1
  114   118     1
  114   119     1
  115   117     1
  115   118     1
  115   119     1
  116   123     1
  116   124     1
  116   125     1
  117   120     1
  117   121     1
  117   122     1
  118   120     1
  118   121     1
  118   122     1
  119   126     1
  119   127     1
  119   128     1
  120   123     1
  120   124     1
  120   125     1
  121   123     1
  121   124     1
  121   125     1
  122   129     1
  122   130     1
  122   131     1
  123   126     1
  123   127     1
  123   128     1
  124   126     1
  124   127     1
  124   128     1
  125   132     1
  125   133     1
  125   134     1
  126   129     1
  126   130     1
  126   131     1
  127   129     1
  127   130     1
  127   131     1
  128   135     1
  128   136     1
  128   137     1
  129   132     1
  129   133     1
  129   134     1
  130   132     1
  130   133     1
  130   134     1
  132   135     1
  132   136     1
  132   137     1
  133   135     1
  133   136     1
  133   137     1

[ angles ] 
; ai	aj	ak	funct	th0	cth	S0	Kub
    2     1     3     5
    2     1     5     5
    2     1    21     5
    3     1     5     5
    3     1    21     5
    5     1    21     5
    1     3     4     5
    1     5     6     5
    1     5     7     5
    1     5     9     5
    6     5     7     5
    6     5     9     5
    7     5     9     5
    5     7     8     5
    5     9    10     5
    5     9    11     5
    5     9    13     5
   10     9    11     5
   10     9    13     5
   11     9    13     5
    9    11    12     5
    9    13    14     5
    9    13    15     5
    9    13    17     5
   14    13    15     5
   14    13    17     5
   15    13    17     5
   13    15    16     5
   13    17    18     5
   13    17    19     5
   13    17    21     5
   18    17    19     5
   18    17    21     5
   19    17    21     5
   17    19    20     5
    1    21    17     5
    1    21    22     5
    1    21    26     5
   17    21    22     5
   17    21    26     5
   22    21    26     5
   24    23    25     5
   24    23    26     5
   24    23    27     5
   25    23    26     5
   25    23    27     5
   26    23    27     5
   21    26    23     5
   23    27    28     5
   27    28    29     5
   27    28    30     5
   27    28    31     5
   29    28    30     5
   29    28    31     5
   30    28    31     5
   28    31    32     5
   28    31    33     5
   28    31    39     5
   32    31    33     5
   32    31    39     5
   33    31    39     5
   31    33    34     5
   33    34    35     5
   33    34    36     5
   35    34    36     5
   34    36    37     5
   34    36    38     5
   34    36    48     5
   37    36    38     5
   37    36    48     5
   38    36    48     5
   31    39    40     5
   31    39    41     5
   31    39    42     5
   40    39    41     5
   40    39    42     5
   41    39    42     5
   39    42    43     5
   42    43    44     5
   42    43    45     5
   44    43    45     5
   43    45    46     5
   43    45    47     5
   43    45    95     5
   46    45    47     5
   46    45    95     5
   47    45    95     5
   36    48    49     5
   36    48    50     5
   36    48    51     5
   49    48    50     5
   49    48    51     5
   50    48    51     5
   48    51    52     5
   48    51    53     5
   48    51    54     5
   52    51    53     5
   52    51    54     5
   53    51    54     5
   51    54    55     5
   51    54    56     5
   51    54    57     5
   55    54    56     5
   55    54    57     5
   56    54    57     5
   54    57    58     5
   54    57    59     5
   54    57    60     5
   58    57    59     5
   58    57    60     5
   59    57    60     5
   57    60    61     5
   57    60    62     5
   57    60    63     5
   61    60    62     5
   61    60    63     5
   62    60    63     5
   60    63    64     5
   60    63    65     5
   60    63    66     5
   64    63    65     5
   64    63    66     5
   65    63    66     5
   63    66    67     5
   63    66    68     5
   67    66    68     5
   66    68    69     5
   66    68    70     5
   69    68    70     5
   68    70    71     5
   68    70    72     5
   68    70    73     5
   71    70    72     5
   71    70    73     5
   72    70    73     5
   70    73    74     5
   70    73    75     5
   70    73    76     5
   74    73    75     5
   74    73    76     5
   75    73    76     5
   73    76    77     5
   73    76    78     5
   73    76    79     5
   77    76    78     5
   77    76    79     5
   78    76    79     5
   76    79    80     5
   76    79    81     5
   76    79    82     5
   80    79    81     5
   80    79    82     5
   81    79    82     5
   79    82    83     5
   79    82    84     5
   79    82    85     5
   83    82    84     5
   83    82    85     5
   84    82    85     5
   82    85    86     5
   82    85    87     5
   82    85    88     5
   86    85    87     5
   86    85    88     5
   87    85    88     5
   85    88    89     5
   85    88    90     5
   85    88    91     5
   89    88    90     5
   89    88    91     5
   90    88    91     5
   88    91    92     5
   88    91    93     5
   88    91    94     5
   92    91    93     5
   92    91    94     5
   93    91    94     5
   45    95    96     5
   45    95    97     5
   45    95    98     5
   96    95    97     5
   96    95    98     5
   97    95    98     5
   95    98    99     5
   95    98   100     5
   95    98   101     5
   99    98   100     5
   99    98   101     5
  100    98   101     5
   98   101   102     5
   98   101   103     5
   98   101   104     5
  102   101   103     5
  102   101   104     5
  103   101   104     5
  101   104   105     5
  101   104   106     5
  101   104   107     5
  105   104   106     5
  105   104   107     5
  106   104   107     5
  104   107   108     5
  104   107   109     5
  104   107   110     5
  108   107   109     5
  108   107   110     5
  109   107   110     5
  107   110   111     5
  107   110   112     5
  107   110   113     5
  111   110   112     5
  111   110   113     5
  112   110   113     5
  110   113   114     5
  110   113   115     5
  110   113   116     5
  114   113   115     5
  114   113   116     5
  115   113   116     5
  113   116   117     5
  113   116   118     5
  113   116   119     5
  117   116   118     5
  117   116   119     5
  118   116   119     5
  116   119   120     5
  116   119   121     5
  116   119   122     5
  120   119   121     5
  120   119   122     5
  121   119   122     5
  119   122   123     5
  119   122   124     5
  119   122   125     5
  123   122   124     5
  123   122   125     5
  124   122   125     5
  122   125   126     5
  122   125   127     5
  122   125   128     5
  126   125   127     5
  126   125   128     5
  127   125   128     5
  125   128   129     5
  125   128   130     5
  125   128   131     5
  129   128   130     5
  129   128   131     5
  130   128   131     5
  128   131   132     5
  128   131   133     5
  128   131   134     5
  132   131   133     5
  132   131   134     5
  133   131   134     5
  131   134   135     5
  131   134   136     5
  131   134   137     5
  135   134   136     5
  135   134   137     5
  136   134   137     5

[ dihedrals ]
; ai	aj	ak	al	funct	phi0	cp	mult
    2     1     3     4     9
    2     1     5     6     9
    2     1     5     7     9
    2     1     5     9     9
    3     1     5     6     9
    3     1     5     7     9
    3     1     5     9     9
    2     1    21    17     9
    2     1    21    22     9
    2     1    21    26     9
    3     1    21    17     9
    3     1    21    22     9
    3     1    21    26     9
    5     1    21    17     9
    5     1    21    22     9
    5     1    21    26     9
    4     3     1     5     9
    4     3     1    21     9
    6     5     1    21     9
    7     5     1    21     9
    9     5     1    21     9
    1     5     7     8     9
    6     5     7     8     9
    1     5     9    10     9
    1     5     9    11     9
    1     5     9    13     9
    6     5     9    10     9
    6     5     9    11     9
    6     5     9    13     9
    7     5     9    10     9
    7     5     9    11     9
    7     5     9    13     9
    8     7     5     9     9
    5     9    11    12     9
   10     9    11    12     9
    5     9    13    14     9
    5     9    13    15     9
    5     9    13    17     9
   10     9    13    14     9
   10     9    13    15     9
   10     9    13    17     9
   11     9    13    14     9
   11     9    13    15     9
   11     9    13    17     9
   12    11     9    13     9
    9    13    15    16     9
   14    13    15    16     9
    9    13    17    18     9
    9    13    17    19     9
    9    13    17    21     9
   14    13    17    18     9
   14    13    17    19     9
   14    13    17    21     9
   15    13    17    18     9
   15    13    17    19     9
   15    13    17    21     9
   16    15    13    17     9
   13    17    19    20     9
   18    17    19    20     9
   13    17    21    22     9
   13    17    21    26     9
   18    17    21    22     9
   18    17    21    26     9
   19    17    21    22     9
   19    17    21    26     9
   20    19    17    21     9
    1    21    17    13     9
    1    21    17    18     9
    1    21    17    19     9
    1    21    26    23     9
   17    21    26    23     9
   22    21    26    23     9
   24    23    27    28     9
   25    23    27    28     9
   26    23    27    28     9
   21    26    23    24     9
   21    26    23    25     9
   21    26    23    27     9
   23    27    28    29     9
   23    27    28    30     9
   23    27    28    31     9
   27    28    31    32     9
   27    28    31    33     9
   27    28    31    39     9
   29    28    31    32     9
   29    28    31    33     9
   29    28    31    39     9
   30    28    31    32     9
   30    28    31    33     9
   30    28    31    39     9
   28    31    33    34     9
   32    31    33    34     9
   28    31    39    40     9
   28    31    39    41     9
   28    31    39    42     9
   32    31    39    40     9
   32    31    39    41     9
   32    31    39    42     9
   33    31    39    40     9
   33    31    39    41     9
   33    31    39    42     9
   34    33    31    39     9
   31    33    34    35     9
   31    33    34    36     9
   33    34    36    37     9
   33    34    36    38     9
   33    34    36    48     9
   35    34    36    37     9
   35    34    36    38     9
   35    34    36    48     9
   34    36    48    49     9
   34    36    48    50     9
   34    36    48    51     9
   37    36    48    49     9
   37    36    48    50     9
   37    36    48    51     9
   38    36    48    49     9
   38    36    48    50     9
   38    36    48    51     9
   31    39    42    43     9
   40    39    42    43     9
   41    39    42    43     9
   39    42    43    44     9
   39    42    43    45     9
   42    43    45    46     9
   42    43    45    47     9
   42    43    45    95     9
   44    43    45    46     9
   44    43    45    47     9
   44    43    45    95     9
   43    45    95    96     9
   43    45    95    97     9
   43    45    95    98     9
   46    45    95    96     9
   46    45    95    97     9
   46    45    95    98     9
   47    45    95    96     9
   47    45    95    97     9
   47    45    95    98     9
   36    48    51    52     9
   36    48    51    53     9
   36    48    51    54     9
   49    48    51    52     9
   49    48    51    53     9
   49    48    51    54     9
   50    48    51    52     9
   50    48    51    53     9
   50    48    51    54     9
   48    51    54    55     9
   48    51    54    56     9
   48    51    54    57     9
   52    51    54    55     9
   52    51    54    56     9
   52    51    54    57     9
   53    51    54    55     9
   53    51    54    56     9
   53    51    54    57     9
   51    54    57    58     9
   51    54    57    59     9
   51    54    57    60     9
   55    54    57    58     9
   55    54    57    59     9
   55    54    57    60     9
   56    54    57    58     9
   56    54    57    59     9
   56    54    57    60     9
   54    57    60    61     9
   54    57    60    62     9
   54    57    60    63     9
   58    57    60    61     9
   58    57    60    62     9
   58    57    60    63     9
   59    57    60    61     9
   59    57    60    62     9
   59    57    60    63     9
   57    60    63    64     9
   57    60    63    65     9
   57    60    63    66     9
   61    60    63    64     9
   61    60    63    65     9
   61    60    63    66     9
   62    60    63    64     9
   62    60    63    65     9
   62    60    63    66     9
   60    63    66    67     9
   60    63    66    68     9
   64    63    66    67     9
   64    63    66    68     9
   65    63    66    67     9
   65    63    66    68     9
   63    66    68    69     9
   63    66    68    70     9
   67    66    68    69     9
   67    66    68    70     9
   66    68    70    71     9
   66    68    70    72     9
   66    68    70    73     9
   69    68    70    71     9
   69    68    70    72     9
   69    68    70    73     9
   68    70    73    74     9
   68    70    73    75     9
   68    70    73    76     9
   71    70    73    74     9
   71    70    73    75     9
   71    70    73    76     9
   72    70    73    74     9
   72    70    73    75     9
   72    70    73    76     9
   70    73    76    77     9
   70    73    76    78     9
   70    73    76    79     9
   74    73    76    77     9
   74    73    76    78     9
   74    73    76    79     9
   75    73    76    77     9
   75    73    76    78     9
   75    73    76    79     9
   73    76    79    80     9
   73    76    79    81     9
   73    76    79    82     9
   77    76    79    80     9
   77    76    79    81     9
   77    76    79    82     9
   78    76    79    80     9
   78    76    79    81     9
   78    76    79    82     9
   76    79    82    83     9
   76    79    82    84     9
   76    79    82    85     9
   80    79    82    83     9
   80    79    82    84     9
   80    79    82    85     9
   81    79    82    83     9
   81    79    82    84     9
   81    79    82    85     9
   79    82    85    86     9
   79    82    85    87     9
   79    82    85    88     9
   83    82    85    86     9
   83    82    85    87     9
   83    82    85    88     9
   84    82    85    86     9
   84    82    85    87     9
   84    82    85    88     9
   82    85    88    89     9
   82    85    88    90     9
   82    85    88    91     9
   86    85    88    89     9
   86    85    88    90     9
   86    85    88    91     9
   87    85    88    89     9
   87    85    88    90     9
   87    85    88    91     9
   85    88    91    92     9
   85    88    91    93     9
   85    88    91    94     9
   89    88    91    92     9
   89    88    91    93     9
   89    88    91    94     9
   90    88    91    92     9
   90    88    91    93     9
   90    88    91    94     9
   45    95    98    99     9
   45    95    98   100     9
   45    95    98   101     9
   96    95    98    99     9
   96    95    98   100     9
   96    95    98   101     9
   97    95    98    99     9
   97    95    98   100     9
   97    95    98   101     9
   95    98   101   102     9
   95    98   101   103     9
   95    98   101   104     9
   99    98   101   102     9
   99    98   101   103     9
   99    98   101   104     9
  100    98   101   102     9
  100    98   101   103     9
  100    98   101   104     9
   98   101   104   105     9
   98   101   104   106     9
   98   101   104   107     9
  102   101   104   105     9
  102   101   104   106     9
  102   101   104   107     9
  103   101   104   105     9
  103   101   104   106     9
  103   101   104   107     9
  101   104   107   108     9
  101   104   107   109     9
  101   104   107   110     9
  105   104   107   108     9
  105   104   107   109     9
  105   104   107   110     9
  106   104   107   108     9
  106   104   107   109     9
  106   104   107   110     9
  104   107   110   111     9
  104   107   110   112     9
  104   107   110   113     9
  108   107   110   111     9
  108   107   110   112     9
  108   107   110   113     9
  109   107   110   111     9
  109   107   110   112     9
  109   107   110   113     9
  107   110   113   114     9
  107   110   113   115     9
  107   110   113   116     9
  111   110   113   114     9
  111   110   113   115     9
  111   110   113   116     9
  112   110   113   114     9
  112   110   113   115     9
  112   110   113   116     9
  110   113   116   117     9
  110   113   116   118     9
  110   113   116   119     9
  114   113   116   117     9
  114   113   116   118     9
  114   113   116   119     9
  115   113   116   117     9
  115   113   116   118     9
  115   113   116   119     9
  113   116   119   120     9
  113   116   119   121     9
  113   116   119   122     9
  117   116   119   120     9
  117   116   119   121     9
  117   116   119   122     9
  118   116   119   120     9
  118   116   119   121     9
  118   116   119   122     9
  116   119   122   123     9
  116   119   122   124     9
  116   119   122   125     9
  120   119   122   123     9
  120   119   122   124     9
  120   119   122   125     9
  121   119   122   123     9
  121   119   122   124     9
  121   119   122   125     9
  119   122   125   126     9
  119   122   125   127     9
  119   122   125   128     9
  123   122   125   126     9
  123   122   125   127     9
  123   122   125   128     9
  124   122   125   126     9
  124   122   125   127     9
  124   122   125   128     9
  122   125   128   129     9
  122   125   128   130     9
  122   125   128   131     9
  126   125   128   129     9
  126   125   128   130     9
  126   125   128   131     9
  127   125   128   129     9
  127   125   128   130     9
  127   125   128   131     9
  125   128   131   132     9
  125   128   131   133     9
  125   128   131   134     9
  129   128   131   132     9
  129   128   131   133     9
  129   128   131   134     9
  130   128   131   132     9
  130   128   131   133     9
  130   128   131   134     9
  128   131   134   135     9
  128   131   134   136     9
  128   131   134   137     9
  132   131   134   135     9
  132   131   134   136     9
  132   131   134   137     9
  133   131   134   135     9
  133   131   134   136     9
  133   131   134   137     9

[ dihedrals ]
; ai	aj	ak	al	funct	q0	cq
   34    33    36    35     2
   43    42    45    44     2

[ position_restraints ]
   23     1     0.0             0.0            1000.0

[ dihedral_restraints ]
    1    21    17    13     1     60.0      2.5       1000.0
   21    17    13     9     1    -60.0      2.5       1000.0
   17    13     9     5     1     60.0      2.5       1000.0
   13     9     5     1     1    -60.0      2.5       1000.0
    9     5     1    21     1     60.0      2.5       1000.0
    5     1    21    17     1    -60.0      2.5       1000.0
   28    39    31    33     1   -120.0      2.5       1000.0
   63    66    68    70     1      0.0      0.0       1000.0
;;
;; Generated by CHARMM-GUI FF-Converter
;;
;; Correspondance:
;; jul316@lehigh.edu or wonpil@lehigh.edu
;;
;; GROMACS topology file for PSM
;;


[ moleculetype ]
; name	nrexcl
PSM	     3

[ atoms ]
; nr	type	resnr	residu	atom	cgnr	charge	mass
     1        NTL     13      PSM      N      1    -0.600000    14.0070   ; qtot -0.600
     2       CTL5     13      PSM    C15      2    -0.350000    12.0110   ; qtot -0.950
     3         HL     13      PSM   H15A      3     0.250000     1.0080   ; qtot -0.700
     4         HL     13      PSM   H15B      4     0.250000     1.0080   ; qtot -0.450
     5         HL     13      PSM   H15C      5     0.250000     1.0080   ; qtot -0.200
     6       CTL5     13      PSM    C14      6    -0.350000    12.0110   ; qtot -0.550
     7         HL     13      PSM   H14A      7     0.250000     1.0080   ; qtot -0.300
     8         HL     13      PSM   H14B      8     0.250000     1.0080   ; qtot -0.050
     9         HL     13      PSM   H14C      9     0.250000     1.0080   ; qtot  0.200
    10       CTL5     13      PSM    C13     10    -0.350000    12.0110   ; qtot -0.150
    11         HL     13      PSM   H13A     11     0.250000     1.0080   ; qtot  0.100
    12         HL     13      PSM   H13B     12     0.250000     1.0080   ; qtot  0.350
    13         HL     13      PSM   H13C     13     0.250000     1.0080   ; qtot  0.600
    14       CTL2     13      PSM    C12     14    -0.100000    12.0110   ; qtot  0.500
    15         HL     13      PSM   H12A     15     0.250000     1.0080   ; qtot  0.750
    16         HL     13      PSM   H12B     16     0.250000     1.0080   ; qtot  1.000
    17       CTL2     13      PSM    C11     17    -0.080000    12.0110   ; qtot  0.920
    18       HAL2     13      PSM   H11A     18     0.090000     1.0080   ; qtot  1.010
    19       HAL2     13      PSM   H11B     19     0.090000     1.0080   ; qtot  1.100
    20         PL     13      PSM      P     20     1.500000    30.9740   ; qtot  2.600
    21        O2L     13      PSM    O13     21    -0.780000    15.9994   ; qtot  1.820
    22        O2L     13      PSM    O14     22    -0.780000    15.9994   ; qtot  1.040
    23       OSLP     13      PSM    O11     23    -0.570000    15.9994   ; qtot  0.470
    24       OSLP     13      PSM    O12     24    -0.570000    15.9994   ; qtot -0.100
    25       CTL2     13      PSM    C1S     25    -0.080000    12.0110   ; qtot -0.180
    26       HAL2     13      PSM    H1S     26     0.090000     1.0080   ; qtot -0.090
    27       HAL2     13      PSM    H1T     27     0.090000     1.0080   ; qtot  0.000
    28        NHL     13      PSM     NF     28    -0.700000    14.0070   ; qtot -0.700
    29          H     13      PSM    HNF     29     0.350000     1.0080   ; qtot -0.350
    30       CTL1     13      PSM    C2S     30     0.300000    12.0110   ; qtot -0.050
    31       HAL1     13      PSM    H2S     31     0.050000     1.0080   ; qtot  0.000
    32       CTO1     13      PSM    C3S     32     0.500000    12.0110   ; qtot  0.500
    33       HAL1     13      PSM    H3S     33    -0.110000     1.0080   ; qtot  0.390
    34        OHL     13      PSM     O3     34    -0.690000    15.9994   ; qtot -0.300
    35        HOL     13      PSM    HO3     35     0.300000     1.0080   ; qtot  0.000
    36       CEL3     13      PSM    C4S     36    -0.150000    12.0110   ; qtot -0.150
    37       HEL1     13      PSM    H4S     37     0.150000     1.0080   ; qtot  0.000
    38       CEL3     13      PSM    C5S     38    -0.150000    12.0110   ; qtot -0.150
    39       HEL1     13      PSM    H5S     39     0.150000     1.0080   ; qtot  0.000
    40       CTL2     13      PSM    C6S     40    -0.180000    12.0110   ; qtot -0.180
    41       HAL2     13      PSM    H6S     41     0.090000     1.0080   ; qtot -0.090
    42       HAL2     13      PSM    H6T     42     0.090000     1.0080   ; qtot  0.000
    43       CTL2     13      PSM    C7S     43    -0.180000    12.0110   ; qtot -0.180
    44       HAL2     13      PSM    H7S     44     0.090000     1.0080   ; qtot -0.090
    45       HAL2     13      PSM    H7T     45     0.090000     1.0080   ; qtot  0.000
    46       CTL2     13      PSM    C8S     46    -0.180000    12.0110   ; qtot -0.180
    47       HAL2     13      PSM    H8S     47     0.090000     1.0080   ; qtot -0.090
    48       HAL2     13      PSM    H8T     48     0.090000     1.0080   ; qtot  0.000
    49       CTL2     13      PSM    C9S     49    -0.180000    12.0110   ; qtot -0.180
    50       HAL2     13      PSM    H9S     50     0.090000     1.0080   ; qtot -0.090
    51       HAL2     13      PSM    H9T     51     0.090000     1.0080   ; qtot  0.000
    52       CTL2     13      PSM   C10S     52    -0.180000    12.0110   ; qtot -0.180
    53       HAL2     13      PSM   H10S     53     0.090000     1.0080   ; qtot -0.090
    54       HAL2     13      PSM   H10T     54     0.090000     1.0080   ; qtot  0.000
    55       CTL2     13      PSM   C11S     55    -0.180000    12.0110   ; qtot -0.180
    56       HAL2     13      PSM   H11S     56     0.090000     1.0080   ; qtot -0.090
    57       HAL2     13      PSM   H11T     57     0.090000     1.0080   ; qtot  0.000
    58       CTL2     13      PSM   C12S     58    -0.180000    12.0110   ; qtot -0.180
    59       HAL2     13      PSM   H12S     59     0.090000     1.0080   ; qtot -0.090
    60       HAL2     13      PSM   H12T     60     0.090000     1.0080   ; qtot  0.000
    61       CTL2     13      PSM   C13S     61    -0.180000    12.0110   ; qtot -0.180
    62       HAL2     13      PSM   H13S     62     0.090000     1.0080   ; qtot -0.090
    63       HAL2     13      PSM   H13T     63     0.090000     1.0080   ; qtot  0.000
    64       CTL2     13      PSM   C14S     64    -0.180000    12.0110   ; qtot -0.180
    65       HAL2     13      PSM   H14S     65     0.090000     1.0080   ; qtot -0.090
    66       HAL2     13      PSM   H14T     66     0.090000     1.0080   ; qtot  0.000
    67       CTL2     13      PSM   C15S     67    -0.180000    12.0110   ; qtot -0.180
    68       HAL2     13      PSM   H15S     68     0.090000     1.0080   ; qtot -0.090
    69       HAL2     13      PSM   H15T     69     0.090000     1.0080   ; qtot  0.000
    70       CTL2     13      PSM   C16S     70    -0.180000    12.0110   ; qtot -0.180
    71       HAL2     13      PSM   H16S     71     0.090000     1.0080   ; qtot -0.090
    72       HAL2     13      PSM   H16T     72     0.090000     1.0080   ; qtot  0.000
    73       CTL2     13      PSM   C17S     73    -0.180000    12.0110   ; qtot -0.180
    74       HAL2     13      PSM   H17S     74     0.090000     1.0080   ; qtot -0.090
    75       HAL2     13      PSM   H17T     75     0.090000     1.0080   ; qtot  0.000
    76       CTL3     13      PSM   C18S     76    -0.270000    12.0110   ; qtot -0.270
    77       HAL3     13      PSM   H18S     77     0.090000     1.0080   ; qtot -0.180
    78       HAL3     13      PSM   H18T     78     0.090000     1.0080   ; qtot -0.090
    79       HAL3     13      PSM   H18U     79     0.090000     1.0080   ; qtot  0.000
    80          C     13      PSM    C1F     80     0.550000    12.0110   ; qtot  0.550
    81          O     13      PSM     OF     81    -0.600000    15.9994   ; qtot -0.050
    82       CTL2     13      PSM    C2F     82    -0.070000    12.0110   ; qtot -0.120
    83       HAL2     13      PSM    H2F     83     0.060000     1.0080   ; qtot -0.060
    84       HAL2     13      PSM    H2G     84     0.060000     1.0080   ; qtot  0.000
    85       CTL2     13      PSM    C3F     85    -0.180000    12.0110   ; qtot -0.180
    86       HAL2     13      PSM    H3F     86     0.090000     1.0080   ; qtot -0.090
    87       HAL2     13      PSM    H3G     87     0.090000     1.0080   ; qtot  0.000
    88       CTL2     13      PSM    C4F     88    -0.180000    12.0110   ; qtot -0.180
    89       HAL2     13      PSM    H4F     89     0.090000     1.0080   ; qtot -0.090
    90       HAL2     13      PSM    H4G     90     0.090000     1.0080   ; qtot  0.000
    91       CTL2     13      PSM    C5F     91    -0.180000    12.0110   ; qtot -0.180
    92       HAL2     13      PSM    H5F     92     0.090000     1.0080   ; qtot -0.090
    93       HAL2     13      PSM    H5G     93     0.090000     1.0080   ; qtot  0.000
    94       CTL2     13      PSM    C6F     94    -0.180000    12.0110   ; qtot -0.180
    95       HAL2     13      PSM    H6F     95     0.090000     1.0080   ; qtot -0.090
    96       HAL2     13      PSM    H6G     96     0.090000     1.0080   ; qtot  0.000
    97       CTL2     13      PSM    C7F     97    -0.180000    12.0110   ; qtot -0.180
    98       HAL2     13      PSM    H7F     98     0.090000     1.0080   ; qtot -0.090
    99       HAL2     13      PSM    H7G     99     0.090000     1.0080   ; qtot  0.000
   100       CTL2     13      PSM    C8F    100    -0.180000    12.0110   ; qtot -0.180
   101       HAL2     13      PSM    H8F    101     0.090000     1.0080   ; qtot -0.090
   102       HAL2     13      PSM    H8G    102     0.090000     1.0080   ; qtot  0.000
   103       CTL2     13      PSM    C9F    103    -0.180000    12.0110   ; qtot -0.180
   104       HAL2     13      PSM    H9F    104     0.090000     1.0080   ; qtot -0.090
   105       HAL2     13      PSM    H9G    105     0.090000     1.0080   ; qtot  0.000
   106       CTL2     13      PSM   C10F    106    -0.180000    12.0110   ; qtot -0.180
   107       HAL2     13      PSM   H10F    107     0.090000     1.0080   ; qtot -0.090
   108       HAL2     13      PSM   H10G    108     0.090000     1.0080   ; qtot  0.000
   109       CTL2     13      PSM   C11F    109    -0.180000    12.0110   ; qtot -0.180
   110       HAL2     13      PSM   H11F    110     0.090000     1.0080   ; qtot -0.090
   111       HAL2     13      PSM   H11G    111     0.090000     1.0080   ; qtot  0.000
   112       CTL2     13      PSM   C12F    112    -0.180000    12.0110   ; qtot -0.180
   113       HAL2     13      PSM   H12F    113     0.090000     1.0080   ; qtot -0.090
   114       HAL2     13      PSM   H12G    114     0.090000     1.0080   ; qtot  0.000
   115       CTL2     13      PSM   C13F    115    -0.180000    12.0110   ; qtot -0.180
   116       HAL2     13      PSM   H13F    116     0.090000     1.0080   ; qtot -0.090
   117       HAL2     13      PSM   H13G    117     0.090000     1.0080   ; qtot  0.000
   118       CTL2     13      PSM   C14F    118    -0.180000    12.0110   ; qtot -0.180
   119       HAL2     13      PSM   H14F    119     0.090000     1.0080   ; qtot -0.090
   120       HAL2     13      PSM   H14G    120     0.090000     1.0080   ; qtot  0.000
   121       CTL2     13      PSM   C15F    121    -0.180000    12.0110   ; qtot -0.180
   122       HAL2     13      PSM   H15F    122     0.090000     1.0080   ; qtot -0.090
   123       HAL2     13      PSM   H15G    123     0.090000     1.0080   ; qtot  0.000
   124       CTL3     13      PSM   C16F    124    -0.270000    12.0110   ; qtot -0.270
   125       HAL3     13      PSM   H16F    125     0.090000     1.0080   ; qtot -0.180
   126       HAL3     13      PSM   H16G    126     0.090000     1.0080   ; qtot -0.090
   127       HAL3     13      PSM   H16H    127     0.090000     1.0080   ; qtot  0.000

[ bonds ]
; ai	aj	funct	b0	Kb
    1     2     1
    1     6     1
    1    10     1
   14     1     1
    2     3     1
    2     4     1
    2     5     1
    6     7     1
    6     8     1
    6     9     1
   10    11     1
   10    12     1
   10    13     1
   14    15     1
   14    16     1
   17    14     1
   17    18     1
   17    19     1
   24    17     1
   21    20     1
   22    20     1
   23    20     1
   24    20     1
   25    23     1
   25    26     1
   25    27     1
   30    25     1
   28    29     1
   30    28     1
   28    80     1
   30    31     1
   32    30     1
   32    33     1
   32    34     1
   36    32     1
   34    35     1
   36    37     1
   36    38     1
   38    39     1
   40    38     1
   40    41     1
   40    42     1
   43    40     1
   43    44     1
   43    45     1
   46    43     1
   46    47     1
   46    48     1
   49    46     1
   49    50     1
   49    51     1
   52    49     1
   52    53     1
   52    54     1
   55    52     1
   55    56     1
   55    57     1
   58    55     1
   58    59     1
   58    60     1
   61    58     1
   61    62     1
   61    63     1
   64    61     1
   64    65     1
   64    66     1
   67    64     1
   67    68     1
   67    69     1
   70    67     1
   70    71     1
   70    72     1
   73    70     1
   73    74     1
   73    75     1
   76    73     1
   76    77     1
   76    78     1
   76    79     1
   80    81     1
   80    82     1
   82    83     1
   82    84     1
   82    85     1
   85    86     1
   85    87     1
   85    88     1
   88    89     1
   88    90     1
   88    91     1
   91    92     1
   91    93     1
   91    94     1
   94    95     1
   94    96     1
   94    97     1
   97    98     1
   97    99     1
   97   100     1
  100   101     1
  100   102     1
  100   103     1
  103   104     1
  103   105     1
  103   106     1
  106   107     1
  106   108     1
  106   109     1
  109   110     1
  109   111     1
  109   112     1
  112   113     1
  112   114     1
  112   115     1
  115   116     1
  115   117     1
  115   118     1
  118   119     1
  118   120     1
  118   121     1
  121   122     1
  121   123     1
  121   124     1
  124   125     1
  124   126     1
  124   127     1

[ pairs ]
; ai	aj	funct	c6	c12 or
; ai	aj	funct	fudgeQQ	q1	q2	c6	c12
    1    18     1
    1    19     1
    1    24     1
    2     7     1
    2     8     1
    2     9     1
    2    11     1
    2    12     1
    2    13     1
    2    15     1
    2    16     1
    2    17     1
    3     6     1
    3    10     1
    3    14     1
    4     6     1
    4    10     1
    4    14     1
    5     6     1
    5    10     1
    5    14     1
    6    11     1
    6    12     1
    6    13     1
    6    15     1
    6    16     1
    6    17     1
    7    10     1
    7    14     1
    8    10     1
    8    14     1
    9    10     1
    9    14     1
   10    15     1
   10    16     1
   10    17     1
   11    14     1
   12    14     1
   13    14     1
   14    20     1
   15    18     1
   15    19     1
   15    24     1
   16    18     1
   16    19     1
   16    24     1
   17    21     1
   17    22     1
   17    23     1
   18    20     1
   19    20     1
   20    26     1
   20    27     1
   20    30     1
   21    25     1
   22    25     1
   23    28     1
   23    31     1
   23    32     1
   24    25     1
   25    29     1
   25    33     1
   25    34     1
   25    36     1
   25    80     1
   26    28     1
   26    31     1
   26    32     1
   27    28     1
   27    31     1
   27    32     1
   28    33     1
   28    34     1
   28    36     1
   28    83     1
   28    84     1
   28    85     1
   29    31     1
   29    32     1
   29    81     1
   29    82     1
   30    35     1
   30    37     1
   30    38     1
   30    81     1
   30    82     1
   31    33     1
   31    34     1
   31    36     1
   31    80     1
   32    39     1
   32    40     1
   32    80     1
   33    35     1
   33    37     1
   33    38     1
   34    37     1
   34    38     1
   35    36     1
   36    41     1
   36    42     1
   36    43     1
   37    39     1
   37    40     1
   38    44     1
   38    45     1
   38    46     1
   39    41     1
   39    42     1
   39    43     1
   40    47     1
   40    48     1
   40    49     1
   41    44     1
   41    45     1
   41    46     1
   42    44     1
   42    45     1
   42    46     1
   43    50     1
   43    51     1
   43    52     1
   44    47     1
   44    48     1
   44    49     1
   45    47     1
   45    48     1
   45    49     1
   46    53     1
   46    54     1
   46    55     1
   47    50     1
   47    51     1
   47    52     1
   48    50     1
   48    51     1
   48    52     1
   49    56     1
   49    57     1
   49    58     1
   50    53     1
   50    54     1
   50    55     1
   51    53     1
   51    54     1
   51    55     1
   52    59     1
   52    60     1
   52    61     1
   53    56     1
   53    57     1
   53    58     1
   54    56     1
   54    57     1
   54    58     1
   55    62     1
   55    63     1
   55    64     1
   56    59     1
   56    60     1
   56    61     1
   57    59     1
   57    60     1
   57    61     1
   58    65     1
   58    66     1
   58    67     1
   59    62     1
   59    63     1
   59    64     1
   60    62     1
   60    63     1
   60    64     1
   61    68     1
   61    69     1
   61    70     1
   62    65     1
   62    66     1
   62    67     1
   63    65     1
   63    66     1
   63    67     1
   64    71     1
   64    72     1
   64    73     1
   65    68     1
   65    69     1
   65    70     1
   66    68     1
   66    69     1
   66    70     1
   67    74     1
   67    75     1
   67    76     1
   68    71     1
   68    72     1
   68    73     1
   69    71     1
   69    72     1
   69    73     1
   70    77     1
   70    78     1
   70    79     1
   71    74     1
   71    75     1
   71    76     1
   72    74     1
   72    75     1
   72    76     1
   74    77     1
   74    78     1
   74    79     1
   75    77     1
   75    78     1
   75    79     1
   80    86     1
   80    87     1
   80    88     1
   81    83     1
   81    84     1
   81    85     1
   82    89     1
   82    90     1
   82    91     1
   83    86     1
   83    87     1
   83    88     1
   84    86     1
   84    87     1
   84    88     1
   85    92     1
   85    93     1
   85    94     1
   86    89     1
   86    90     1
   86    91     1
   87    89     1
   87    90     1
   87    91     1
   88    95     1
   88    96     1
   88    97     1
   89    92     1
   89    93     1
   89    94     1
   90    92     1
   90    93     1
   90    94     1
   91    98     1
   91    99     1
   91   100     1
   92    95     1
   92    96     1
   92    97     1
   93    95     1
   93    96     1
   93    97     1
   94   101     1
   94   102     1
   94   103     1
   95    98     1
   95    99     1
   95   100     1
   96    98     1
   96    99     1
   96   100     1
   97   104     1
   97   105     1
   97   106     1
   98   101     1
   98   102     1
   98   103     1
   99   101     1
   99   102     1
   99   103     1
  100   107     1
  100   108     1
  100   109     1
  101   104     1
  101   105     1
  101   106     1
  102   104     1
  102   105     1
  102   106     1
  103   110     1
  103   111     1
  103   112     1
  104   107     1
  104   108     1
  104   109     1
  105   107     1
  105   108     1
  105   109     1
  106   113     1
  106   114     1
  106   115     1
  107   110     1
  107   111     1
  107   112     1
  108   110     1
  108   111     1
  108   112     1
  109   116     1
  109   117     1
  109   118     1
  110   113     1
  110   114     1
  110   115     1
  111   113     1
  111   114     1
  111   115     1
  112   119     1
  112   120     1
  112   121     1
  113   116     1
  113   117     1
  113   118     1
  114   116     1
  114   117     1
  114   118     1
  115   122     1
  115   123     1
  115   124     1
  116   119     1
  116   120     1
  116   121     1
  117   119     1
  117   120     1
  117   121     1
  118   125     1
  118   126     1
  118   127     1
  119   122     1
  119   123     1
  119   124     1
  120   122     1
  120   123     1
  120   124     1
  122   125     1
  122   126     1
  122   127     1
  123   125     1
  123   126     1
  123   127     1

[ angles ] 
; ai	aj	ak	funct	th0	cth	S0	Kub
    2     1     6     5
    2     1    10     5
    2     1    14     5
    6     1    10     5
    6     1    14     5
   10     1    14     5
    1     2     3     5
    1     2     4     5
    1     2     5     5
    3     2     4     5
    3     2     5     5
    4     2     5     5
    1     6     7     5
    1     6     8     5
    1     6     9     5
    7     6     8     5
    7     6     9     5
    8     6     9     5
    1    10    11     5
    1    10    12     5
    1    10    13     5
   11    10    12     5
   11    10    13     5
   12    10    13     5
    1    14    15     5
    1    14    16     5
    1    14    17     5
   15    14    16     5
   15    14    17     5
   16    14    17     5
   14    17    18     5
   14    17    19     5
   14    17    24     5
   18    17    19     5
   18    17    24     5
   19    17    24     5
   21    20    22     5
   21    20    23     5
   21    20    24     5
   22    20    23     5
   22    20    24     5
   23    20    24     5
   20    23    25     5
   17    24    20     5
   23    25    26     5
   23    25    27     5
   23    25    30     5
   26    25    27     5
   26    25    30     5
   27    25    30     5
   29    28    30     5
   29    28    80     5
   30    28    80     5
   25    30    28     5
   25    30    31     5
   25    30    32     5
   28    30    31     5
   28    30    32     5
   31    30    32     5
   30    32    33     5
   30    32    34     5
   30    32    36     5
   33    32    34     5
   33    32    36     5
   34    32    36     5
   32    34    35     5
   32    36    37     5
   32    36    38     5
   37    36    38     5
   36    38    39     5
   36    38    40     5
   39    38    40     5
   38    40    41     5
   38    40    42     5
   38    40    43     5
   41    40    42     5
   41    40    43     5
   42    40    43     5
   40    43    44     5
   40    43    45     5
   40    43    46     5
   44    43    45     5
   44    43    46     5
   45    43    46     5
   43    46    47     5
   43    46    48     5
   43    46    49     5
   47    46    48     5
   47    46    49     5
   48    46    49     5
   46    49    50     5
   46    49    51     5
   46    49    52     5
   50    49    51     5
   50    49    52     5
   51    49    52     5
   49    52    53     5
   49    52    54     5
   49    52    55     5
   53    52    54     5
   53    52    55     5
   54    52    55     5
   52    55    56     5
   52    55    57     5
   52    55    58     5
   56    55    57     5
   56    55    58     5
   57    55    58     5
   55    58    59     5
   55    58    60     5
   55    58    61     5
   59    58    60     5
   59    58    61     5
   60    58    61     5
   58    61    62     5
   58    61    63     5
   58    61    64     5
   62    61    63     5
   62    61    64     5
   63    61    64     5
   61    64    65     5
   61    64    66     5
   61    64    67     5
   65    64    66     5
   65    64    67     5
   66    64    67     5
   64    67    68     5
   64    67    69     5
   64    67    70     5
   68    67    69     5
   68    67    70     5
   69    67    70     5
   67    70    71     5
   67    70    72     5
   67    70    73     5
   71    70    72     5
   71    70    73     5
   72    70    73     5
   70    73    74     5
   70    73    75     5
   70    73    76     5
   74    73    75     5
   74    73    76     5
   75    73    76     5
   73    76    77     5
   73    76    78     5
   73    76    79     5
   77    76    78     5
   77    76    79     5
   78    76    79     5
   28    80    81     5
   28    80    82     5
   81    80    82     5
   80    82    83     5
   80    82    84     5
   80    82    85     5
   83    82    84     5
   83    82    85     5
   84    82    85     5
   82    85    86     5
   82    85    87     5
   82    85    88     5
   86    85    87     5
   86    85    88     5
   87    85    88     5
   85    88    89     5
   85    88    90     5
   85    88    91     5
   89    88    90     5
   89    88    91     5
   90    88    91     5
   88    91    92     5
   88    91    93     5
   88    91    94     5
   92    91    93     5
   92    91    94     5
   93    91    94     5
   91    94    95     5
   91    94    96     5
   91    94    97     5
   95    94    96     5
   95    94    97     5
   96    94    97     5
   94    97    98     5
   94    97    99     5
   94    97   100     5
   98    97    99     5
   98    97   100     5
   99    97   100     5
   97   100   101     5
   97   100   102     5
   97   100   103     5
  101   100   102     5
  101   100   103     5
  102   100   103     5
  100   103   104     5
  100   103   105     5
  100   103   106     5
  104   103   105     5
  104   103   106     5
  105   103   106     5
  103   106   107     5
  103   106   108     5
  103   106   109     5
  107   106   108     5
  107   106   109     5
  108   106   109     5
  106   109   110     5
  106   109   111     5
  106   109   112     5
  110   109   111     5
  110   109   112     5
  111   109   112     5
  109   112   113     5
  109   112   114     5
  109   112   115     5
  113   112   114     5
  113   112   115     5
  114   112   115     5
  112   115   116     5
  112   115   117     5
  112   115   118     5
  116   115   117     5
  116   115   118     5
  117   115   118     5
  115   118   119     5
  115   118   120     5
  115   118   121     5
  119   118   120     5
  119   118   121     5
  120   118   121     5
  118   121   122     5
  118   121   123     5
  118   121   124     5
  122   121   123     5
  122   121   124     5
  123   121   124     5
  121   124   125     5
  121   124   126     5
  121   124   127     5
  125   124   126     5
  125   124   127     5
  126   124   127     5

[ dihedrals ]
; ai	aj	ak	al	funct	phi0	cp	mult
    2     1     6     7     9
    2     1     6     8     9
    2     1     6     9     9
    2     1    10    11     9
    2     1    10    12     9
    2     1    10    13     9
    6     1    10    11     9
    6     1    10    12     9
    6     1    10    13     9
    2     1    14    15     9
    2     1    14    16     9
    2     1    14    17     9
    6     1    14    15     9
    6     1    14    16     9
    6     1    14    17     9
   10     1    14    15     9
   10     1    14    16     9
   10     1    14    17     9
    3     2     1     6     9
    3     2     1    10     9
    3     2     1    14     9
    4     2     1     6     9
    4     2     1    10     9
    4     2     1    14     9
    5     2     1     6     9
    5     2     1    10     9
    5     2     1    14     9
    7     6     1    10     9
    7     6     1    14     9
    8     6     1    10     9
    8     6     1    14     9
    9     6     1    10     9
    9     6     1    14     9
   11    10     1    14     9
   12    10     1    14     9
   13    10     1    14     9
    1    14    17    18     9
    1    14    17    19     9
    1    14    17    24     9
   15    14    17    18     9
   15    14    17    19     9
   15    14    17    24     9
   16    14    17    18     9
   16    14    17    19     9
   16    14    17    24     9
   14    17    24    20     9
   18    17    24    20     9
   19    17    24    20     9
   21    20    23    25     9
   22    20    23    25     9
   24    20    23    25     9
   20    23    25    26     9
   20    23    25    27     9
   20    23    25    30     9
   17    24    20    21     9
   17    24    20    22     9
   17    24    20    23     9
   23    25    30    28     9
   23    25    30    31     9
   23    25    30    32     9
   26    25    30    28     9
   26    25    30    31     9
   26    25    30    32     9
   27    25    30    28     9
   27    25    30    31     9
   27    25    30    32     9
   29    28    30    31     9
   29    28    30    32     9
   29    28    80    81     9
   29    28    80    82     9
   30    28    80    81     9
   30    28    80    82     9
   25    30    28    29     9
   25    30    28    80     9
   31    30    28    80     9
   32    30    28    80     9
   25    30    32    33     9
   25    30    32    34     9
   25    30    32    36     9
   28    30    32    33     9
   28    30    32    34     9
   28    30    32    36     9
   31    30    32    33     9
   31    30    32    34     9
   31    30    32    36     9
   30    32    34    35     9
   33    32    34    35     9
   30    32    36    37     9
   30    32    36    38     9
   33    32    36    37     9
   33    32    36    38     9
   34    32    36    37     9
   34    32    36    38     9
   35    34    32    36     9
   32    36    38    39     9
   32    36    38    40     9
   37    36    38    39     9
   37    36    38    40     9
   36    38    40    41     9
   36    38    40    42     9
   36    38    40    43     9
   39    38    40    41     9
   39    38    40    42     9
   39    38    40    43     9
   38    40    43    44     9
   38    40    43    45     9
   38    40    43    46     9
   41    40    43    44     9
   41    40    43    45     9
   41    40    43    46     9
   42    40    43    44     9
   42    40    43    45     9
   42    40    43    46     9
   40    43    46    47     9
   40    43    46    48     9
   40    43    46    49     9
   44    43    46    47     9
   44    43    46    48     9
   44    43    46    49     9
   45    43    46    47     9
   45    43    46    48     9
   45    43    46    49     9
   43    46    49    50     9
   43    46    49    51     9
   43    46    49    52     9
   47    46    49    50     9
   47    46    49    51     9
   47    46    49    52     9
   48    46    49    50     9
   48    46    49    51     9
   48    46    49    52     9
   46    49    52    53     9
   46    49    52    54     9
   46    49    52    55     9
   50    49    52    53     9
   50    49    52    54     9
   50    49    52    55     9
   51    49    52    53     9
   51    49    52    54     9
   51    49    52    55     9
   49    52    55    56     9
   49    52    55    57     9
   49    52    55    58     9
   53    52    55    56     9
   53    52    55    57     9
   53    52    55    58     9
   54    52    55    56     9
   54    52    55    57     9
   54    52    55    58     9
   52    55    58    59     9
   52    55    58    60     9
   52    55    58    61     9
   56    55    58    59     9
   56    55    58    60     9
   56    55    58    61     9
   57    55    58    59     9
   57    55    58    60     9
   57    55    58    61     9
   55    58    61    62     9
   55    58    61    63     9
   55    58    61    64     9
   59    58    61    62     9
   59    58    61    63     9
   59    58    61    64     9
   60    58    61    62     9
   60    58    61    63     9
   60    58    61    64     9
   58    61    64    65     9
   58    61    64    66     9
   58    61    64    67     9
   62    61    64    65     9
   62    61    64    66     9
   62    61    64    67     9
   63    61    64    65     9
   63    61    64    66     9
   63    61    64    67     9
   61    64    67    68     9
   61    64    67    69     9
   61    64    67    70     9
   65    64    67    68     9
   65    64    67    69     9
   65    64    67    70     9
   66    64    67    68     9
   66    64    67    69     9
   66    64    67    70     9
   64    67    70    71     9
   64    67    70    72     9
   64    67    70    73     9
   68    67    70    71     9
   68    67    70    72     9
   68    67    70    73     9
   69    67    70    71     9
   69    67    70    72     9
   69    67    70    73     9
   67    70    73    74     9
   67    70    73    75     9
   67    70    73    76     9
   71    70    73    74     9
   71    70    73    75     9
   71    70    73    76     9
   72    70    73    74     9
   72    70    73    75     9
   72    70    73    76     9
   70    73    76    77     9
   70    73    76    78     9
   70    73    76    79     9
   74    73    76    77     9
   74    73    76    78     9
   74    73    76    79     9
   75    73    76    77     9
   75    73    76    78     9
   75    73    76    79     9
   28    80    82    83     9
   28    80    82    84     9
   28    80    82    85     9
   81    80    82    83     9
   81    80    82    84     9
   81    80    82    85     9
   80    82    85    86     9
   80    82    85    87     9
   80    82    85    88     9
   83    82    85    86     9
   83    82    85    87     9
   83    82    85    88     9
   84    82    85    86     9
   84    82    85    87     9
   84    82    85    88     9
   82    85    88    89     9
   82    85    88    90     9
   82    85    88    91     9
   86    85    88    89     9
   86    85    88    90     9
   86    85    88    91     9
   87    85    88    89     9
   87    85    88    90     9
   87    85    88    91     9
   85    88    91    92     9
   85    88    91    93     9
   85    88    91    94     9
   89    88    91    92     9
   89    88    91    93     9
   89    88    91    94     9
   90    88    91    92     9
   90    88    91    93     9
   90    88    91    94     9
   88    91    94    95     9
   88    91    94    96     9
   88    91    94    97     9
   92    91    94    95     9
   92    91    94    96     9
   92    91    94    97     9
   93    91    94    95     9
   93    91    94    96     9
   93    91    94    97     9
   91    94    97    98     9
   91    94    97    99     9
   91    94    97   100     9
   95    94    97    98     9
   95    94    97    99     9
   95    94    97   100     9
   96    94    97    98     9
   96    94    97    99     9
   96    94    97   100     9
   94    97   100   101     9
   94    97   100   102     9
   94    97   100   103     9
   98    97   100   101     9
   98    97   100   102     9
   98    97   100   103     9
   99    97   100   101     9
   99    97   100   102     9
   99    97   100   103     9
   97   100   103   104     9
   97   100   103   105     9
   97   100   103   106     9
  101   100   103   104     9
  101   100   103   105     9
  101   100   103   106     9
  102   100   103   104     9
  102   100   103   105     9
  102   100   103   106     9
  100   103   106   107     9
  100   103   106   108     9
  100   103   106   109     9
  104   103   106   107     9
  104   103   106   108     9
  104   103   106   109     9
  105   103   106   107     9
  105   103   106   108     9
  105   103   106   109     9
  103   106   109   110     9
  103   106   109   111     9
  103   106   109   112     9
  107   106   109   110     9
  107   106   109   111     9
  107   106   109   112     9
  108   106   109   110     9
  108   106   109   111     9
  108   106   109   112     9
  106   109   112   113     9
  106   109   112   114     9
  106   109   112   115     9
  110   109   112   113     9
  110   109   112   114     9
  110   109   112   115     9
  111   109   112   113     9
  111   109   112   114     9
  111   109   112   115     9
  109   112   115   116     9
  109   112   115   117     9
  109   112   115   118     9
  113   112   115   116     9
  113   112   115   117     9
  113   112   115   118     9
  114   112   115   116     9
  114   112   115   117     9
  114   112   115   118     9
  112   115   118   119     9
  112   115   118   120     9
  112   115   118   121     9
  116   115   118   119     9
  116   115   118   120     9
  116   115   118   121     9
  117   115   118   119     9
  117   115   118   120     9
  117   115   118   121     9
  115   118   121   122     9
  115   118   121   123     9
  115   118   121   124     9
  119   118   121   122     9
  119   118   121   123     9
  119   118   121   124     9
  120   118   121   122     9
  120   118   121   123     9
  120   118   121   124     9
  118   121   124   125     9
  118   121   124   126     9
  118   121   124   127     9
  122   121   124   125     9
  122   121   124   126     9
  122   121   124   127     9
  123   121   124   125     9
  123   121   124   126     9
  123   121   124   127     9

[ dihedrals ]
; ai	aj	ak	al	funct	q0	cq
   28    80    30    29     2
   80    82    28    81     2

[ position_restraints ]
   20     1     0.0             0.0            1000.0

[ dihedral_restraints ]
   32    25    30    28     1    120.0      2.5       1000.0
   36    34    32    30     1   -120.0      2.5       1000.0
   32    36    38    40     1    180.0      0.0       1000.0
;;
;; Generated by CHARMM-GUI FF-Converter
;;
;; Correspondance:
;; jul316@lehigh.edu or wonpil@lehigh.edu
;;
;; GROMACS topology file for SOD
;;


[ moleculetype ]
; name	nrexcl
SOD	     1

[ atoms ]
; nr	type	resnr	residu	atom	cgnr	charge	mass
     1        SOD      1      SOD    SOD      1     1.000000    22.9898   ; qtot  1.000
;;
;; Generated by CHARMM-GUI FF-Converter
;;
;; Correspondance:
;; jul316@lehigh.edu or wonpil@lehigh.edu
;;
;; GROMACS topology file for CLA
;;


[ moleculetype ]
; name	nrexcl
CLA	     1

[ atoms ]
; nr	type	resnr	residu	atom	cgnr	charge	mass
     1        CLA     70      CLA    CLA      1    -1.000000    35.4500   ; qtot -1.000
;;
;; Generated by CHARMM-GUI FF-Converter
;;
;; Correspondance:
;; jul316@lehigh.edu or wonpil@lehigh.edu
;;
;; GROMACS topology file for TIP3
;;


[ moleculetype ]
; name	nrexcl
TIP3	     2

[ atoms ]
; nr	type	resnr	residu	atom	cgnr	charge	mass
     1         OT      1     TIP3    OH2      1    -0.834000    15.9994   ; qtot -0.834
     2         HT      1     TIP3     H1      2     0.417000     1.0080   ; qtot -0.417
     3         HT      1     TIP3     H2      3     0.417000     1.0080   ; qtot  0.000

[ settles ]
; OW	funct	doh	dhh
    1     1  9.572000e-02  1.513900e-01

[ exclusions ]
    1     2     3
    2     1     3
    3     1     2

[ system ]
; Name
Title

[ molecules ]
; Compound	#mols
CHL1  	          30
POPE  	          50
POPS  	          40
POPC  	          60
POPI  	          10
PSM   	          10
SOD   	          69
CLA   	          19
TIP3  	        7783
Other    1
