;;
;; Generated by CHARMM-GUI FF-Converter
;;
;; Correspondance:
;; jul316@lehigh.edu or wonpil@lehigh.edu
;;
;; The main GROMACS topology file
;;

; Include forcefield parameters
#include "toppar/forcefield.itp"
#include "toppar/CHL1.itp"
#include "toppar/POPE.itp"
#include "toppar/POPS.itp"
#include "toppar/POPC.itp"
#include "toppar/POPI.itp"
#include "toppar/PSM.itp"
#include "toppar/SOD.itp"
#include "toppar/CLA.itp"
#include "toppar/TIP3.itp"

[ system ]
; Name
Title

[ molecules ]
; Compound	#mols
CHL1  	          30
POPE  	          50
POPS  	          40
POPC  	          60
POPI  	          10
PSM   	          10
SOD   	          69
CLA   	          19
TIP3  	        7808
