Gnomes, ROck Monsters And Chili Sauce
   70
    1DM2     C1    1  -0.069  -0.068   0.623
    1DM2     C2    2   0.022  -0.027   0.721
    1DM2     C3    3   0.139   0.038   0.684
    1DM2     C4    4   0.167   0.064   0.549
    1DM2     O5    5   0.280   0.129   0.508
    1DM2     C6    6   0.076   0.023   0.450
    1DM2     C7    7   0.100   0.045   0.305
    1DM2     O8    8   0.203   0.097   0.263
    1DM2     C9    9  -0.002   0.005   0.205
    1DM2    C10   10   0.018   0.031   0.067
    1DM2    O11   11   0.130   0.098   0.023
    1DM2    C12   12  -0.077  -0.007  -0.030
    1DM2    C13   13  -0.052   0.021  -0.178
    1DM2    O14   14   0.075  -0.036  -0.215
    1DM2    C15   15  -0.155  -0.044  -0.270
    1DM2    C16   16  -0.299  -0.030  -0.221
    1DM2    O17   17  -0.381  -0.105  -0.314
    1DM2    C18   18  -0.354   0.116  -0.220
    1DM2    O19   19  -0.291   0.198  -0.122
    1DM2    C20   20  -0.344   0.187  -0.356
    1DM2    O21   21  -0.403   0.317  -0.342
    1DM2    C22   22  -0.309  -0.098  -0.083
    1DM2    C23   23  -0.198  -0.065   0.014
    1DM2    C24   24  -0.216  -0.093   0.150
    1DM2    O25   25  -0.333  -0.154   0.186
    1DM2    C26   26  -0.119  -0.058   0.245
    1DM2    C27   27  -0.140  -0.086   0.388
    1DM2    O28   28  -0.242  -0.146   0.423
    1DM2    C29   29  -0.042  -0.043   0.488
    1DM2    C30   30   0.377   0.168   0.605
    1DM2    C31   31   0.157   0.056  -0.287
    1DM2    C32   32   0.302   0.009  -0.281
    1DM2    C33   33   0.321  -0.119  -0.363
    1DM2    N34   34   0.462  -0.162  -0.358
    1DM2    C35   35   0.271  -0.095  -0.507
    1DM2    O36   36   0.354   0.002  -0.573
    1DM2    C37   37   0.124  -0.047  -0.501
    1DM2    O38   38   0.111   0.072  -0.421
    1DM2    C39   39   0.067  -0.015  -0.638
    1DM2    H40   40  -0.160  -0.119   0.653
    1DM2    H41   41   0.001  -0.046   0.826
    1DM2    H42   42   0.206   0.069   0.763
    1DM2    H43   43   0.189   0.115   0.100
    1DM2    H44   44  -0.054   0.129  -0.192
    1DM2    H45   45  -0.132  -0.151  -0.281
    1DM2    H46   46  -0.145  -0.006  -0.372
    1DM2    H47   47  -0.467  -0.121  -0.272
    1DM2    H48   48  -0.240   0.202  -0.385
    1DM2    H49   49  -0.397   0.132  -0.434
    1DM2    H50   50  -0.394   0.360  -0.429
    1DM2    H51   51  -0.309  -0.207  -0.097
    1DM2    H52   52  -0.407  -0.073  -0.040
    1DM2    H53   53  -0.333  -0.169   0.283
    1DM2    H54   54   0.460   0.215   0.552
    1DM2    H55   55   0.335   0.242   0.674
    1DM2    H56   56   0.416   0.081   0.658
    1DM2    H57   57   0.153   0.155  -0.239
    1DM2    H58   58   0.368   0.088  -0.320
    1DM2    H59   59   0.331  -0.010  -0.176
    1DM2    H60   60   0.261  -0.199  -0.319
    1DM2    H61   61   0.487  -0.185  -0.262
    1DM2    H62   62   0.475  -0.245  -0.414
    1DM2    H63   63   0.277  -0.188  -0.565
    1DM2    H64   64   0.327   0.007  -0.666
    1DM2    H65   65   0.063  -0.126  -0.456
    1DM2    H66   66  -0.040   0.010  -0.629
    1DM2    H67   67   0.115   0.073  -0.683
    1DM2    H68   68   0.077  -0.100  -0.706
    1DM2    H69   69  -0.460   0.113  -0.192
    1DM2    H70   70  -0.323   0.289  -0.141
   0.00000   0.00000   0.00000
